ITEM: TIMESTEP
106000
ITEM: NUMBER OF ATOMS
97821
ITEM: BOX BOUNDS pp pp pp
-22.0999 113.006
-21.8397 65.9581
-21.1856 62.042
ITEM: ATOMS id type x y z 
44637 1 -19.6827 -16.992 -17.7507 
44633 3 -19.4765 -17.9798 -18.2808 
44636 1 -18.6173 -18.359 -17.7644 
41910 1 -19.663 -20.5609 -14.9991 
44643 1 -17.6841 -15.9336 -19.1238 
44638 3 -18.993 -17.574 -19.6822 
44642 1 -16.9283 -17.589 -19.0763 
44639 3 -17.5985 -16.8842 -19.6336 
92464 1 -16.5309 -19.1365 -17.2576 
44632 3 -20.8433 -18.8131 -18.2096 
43903 1 -15.8029 -15.6595 -17.3722 
44640 1 -19.7271 -16.8933 -20.1176 
44634 1 -21.1423 -18.8034 -17.1261 
44627 3 -20.7683 -20.2991 -18.7286 
44635 1 -21.6652 -18.2981 -18.8204 
92462 3 -16.5374 -20.2037 -17.2941 
44631 1 -20.1612 -20.8536 -18.0264 
92461 1 -17.0759 -20.5006 -15.1293 
92465 1 -17.4167 -20.4255 -17.8847 
44644 3 -17.1705 -16.5487 -21.0893 
92469 3 -16.3546 -20.7055 -20.3409 
44641 1 -19.0173 -18.3856 -20.4227 
92457 3 -16.3907 -20.8706 -15.8973 
44630 1 -20.1757 -20.2424 -19.6492 
44645 3 -15.8522 -15.7314 -21.0649 
92472 1 -17.3045 -20.2013 -20.0156 
43906 1 -16.1104 -16.8924 -15.3006 
92473 1 -16.5058 -21.7384 -20.0047 
43904 3 -15.2474 -16.2651 -15.4288 
92467 1 -14.3288 -20.2487 -17.568 
41123 1 -12.2958 -19.8366 -14.3995 
43905 3 -14.0623 -17.1515 -15.9108 
43915 1 -11.3587 -17.9597 -16.7447 
43909 1 -13.971 -18.0222 -15.2367 
41116 1 -10.8073 -20.4769 -16.559 
43908 1 -14.3304 -17.6051 -16.8969 
41119 1 -13.1691 -21.6052 -15.9911 
41115 3 -12.1856 -21.7628 -15.4057 
43910 3 -12.7323 -16.3227 -16.0482 
43911 3 -11.7806 -16.9741 -17.0282 
92471 1 -15.2899 -18.895 -19.4781 
43914 1 -12.4329 -17.3805 -17.8168 
41114 3 -10.9149 -21.5051 -16.2628 
43916 3 -10.7836 -16.0896 -17.787 
43919 1 -10.478 -16.6517 -18.6913 
41110 1 -9.63372 -21.0098 -18.7037 
92460 1 -15.4606 -20.4792 -15.4664 
44649 1 -15.0718 -16.2914 -20.5349 
92468 3 -15.2075 -20.0576 -19.52 
92463 3 -15.2833 -20.5702 -18.0788 
43912 1 -12.238 -16.2182 -15.0572 
43917 3 -9.53406 -15.6107 -17.0245 
41117 1 -10.0609 -21.7343 -15.6154 
43907 1 -15.0106 -15.871 -14.3823 
91373 1 -12.3476 -17.8869 -20.6996 
92466 1 -15.1374 -21.721 -18.2221 
92470 1 -14.2435 -20.2906 -19.9493 
43921 1 -8.91783 -16.4321 -16.5861 
41147 1 -8.19658 -20.1248 -15.9069 
41143 1 -7.00365 -17.687 -15.9256 
41146 1 -6.9936 -19.7701 -17.0468 
41144 3 -7.10343 -19.839 -15.9938 
41149 1 -5.12113 -20.8563 -15.8494 
41139 3 -6.58692 -18.5112 -15.3361 
42122 1 -4.68962 -19.9055 -18.2227 
41142 1 -5.54084 -18.6279 -15.5903 
41465 1 -4.43517 -16.3911 -18.8941 
41467 1 -6.98747 -16.4932 -18.8445 
41473 1 -8.35489 -17.0111 -20.617 
41468 3 -6.44321 -15.8616 -20.8383 
42119 3 -3.8912 -19.9395 -18.9467 
42123 1 -3.18476 -19.0735 -18.7745 
41145 3 -6.1304 -21.0524 -15.5277 
41148 1 -6.1101 -21.0176 -14.4081 
42118 3 -4.30671 -19.7753 -20.4013 
42124 3 -2.91243 -21.1586 -18.5329 
41463 3 -6.49468 -15.644 -19.2908 
42121 1 -4.64087 -18.6918 -20.5417 
42120 1 -5.26861 -20.3329 -20.574 
41105 1 -8.54131 -21.4977 -21.1197 
41470 1 -5.63641 -16.5606 -21.1555 
42128 1 -2.76031 -20.5521 -16.416 
43028 1 -2.71425 -17.9388 -15.2303 
42126 1 -2.2534 -21.4049 -19.3134 
42125 3 -2.13005 -20.8012 -17.2505 
42129 1 -1.51649 -19.8744 -17.4287 
42135 1 0.384227 -20.8835 -15.7612 
7288 1 0.906478 -16.8592 -18.2618 
7282 1 2.25884 -18.8906 -15.5905 
7279 3 1.85262 -18.4871 -16.4644 
7289 1 2.55553 -16.1092 -18.3746 
7285 3 1.67463 -16.2208 -17.707 
7284 3 2.05433 -16.9403 -16.4078 
7283 1 0.738967 -18.7156 -16.2976 
7287 1 1.67122 -16.4284 -15.515 
7273 3 2.68606 -20.651 -17.6643 
7278 3 2.54114 -19.1327 -17.7193 
7280 1 2.07108 -18.7496 -18.5936 
43027 3 -2.48797 -15.7447 -15.4908 
43031 1 -2.06464 -15.941 -16.476 
7286 1 3.13613 -16.7026 -16.2493 
7276 1 3.42291 -20.9334 -16.841 
43026 3 -2.28048 -17.0497 -14.6979 
43029 1 -1.22631 -17.2727 -14.6748 
7274 1 2.0367 -20.9104 -19.658 
7277 1 1.78564 -21.0637 -17.2076 
7281 1 3.5318 -18.5386 -17.8239 
7272 3 2.91464 -21.2009 -19.0553 
42131 3 -0.416186 -21.6682 -15.5669 
42134 1 -1.00216 -21.2033 -14.7496 
31847 1 6.47184 -20.4301 -17.9875 
31849 3 7.95734 -19.6186 -20.1773 
31852 1 6.99307 -19.0063 -20.105 
42165 1 5.5219 -18.3529 -16.3983 
42161 3 5.99199 -17.8976 -15.4894 
42168 1 8.10254 -17.5413 -16.2064 
42166 3 7.19535 -16.9333 -15.8681 
31853 1 7.68112 -20.512 -20.7835 
42171 1 5.89936 -16.1054 -17.485 
31848 3 8.50092 -19.9163 -18.7113 
42169 1 7.63179 -16.4304 -14.9056 
42162 1 7.20564 -19.5126 -14.6407 
31859 1 9.03876 -16.9891 -20.4343 
42164 1 5.24925 -17.1623 -15.1039 
31850 1 9.58154 -20.3209 -18.6745 
42167 3 6.82866 -15.7915 -16.8936 
42159 1 4.64181 -20.1198 -15.2617 
42160 3 6.30447 -18.9922 -14.444 
31851 1 8.74646 -18.9703 -18.2336 
42174 1 8.16539 -16.2228 -18.4815 
42155 3 5.13249 -19.9447 -14.2874 
31846 1 7.80714 -20.5961 -16.8007 
31843 3 7.53575 -20.7846 -17.8463 
31855 3 9.68848 -17.6664 -20.9747 
7275 1 3.78288 -20.7491 -19.5397 
31008 1 12.1801 -21.0527 -16.7157 
31858 1 10.5648 -17.9691 -20.2234 
31007 3 13.5277 -20.0077 -15.402 
31010 1 13.6023 -19.6692 -14.3768 
31006 3 12.3626 -21.0041 -15.6291 
78809 1 14.2283 -18.3318 -19.3955 
31005 1 10.3451 -21.502 -15.4999 
32038 1 12.5755 -16.2681 -15.6762 
31011 1 13.4433 -19.0622 -15.9848 
31001 3 10.9702 -20.6691 -15.0979 
31004 1 10.696 -19.6996 -15.6129 
31012 3 14.915 -20.6654 -15.8298 
78805 1 14.7131 -20.5572 -19.5752 
32039 1 11.6355 -15.9495 -17.1027 
32031 1 16.0938 -16.5769 -16.5298 
31017 1 15.806 -18.9396 -16.7942 
31013 3 15.9679 -19.5119 -15.8916 
31016 1 15.9292 -18.8234 -15.0216 
31015 1 15.1729 -21.4636 -15.1124 
78806 3 15.1073 -18.4739 -20.0333 
78808 1 15.965 -18.3728 -19.3322 
78810 1 15.082 -16.366 -20.7836 
78801 3 14.9798 -20.0023 -20.4762 
31014 1 14.8085 -21.2293 -16.8393 
32030 1 14.9908 -16.4528 -15.1557 
32028 3 15.6938 -15.8113 -15.7723 
32036 1 13.8332 -15.8704 -17.8629 
78807 3 15.1548 -17.3895 -21.1815 
78804 1 15.9618 -20.421 -20.7051 
31021 1 18.012 -19.0258 -16.4565 
32025 1 17.7832 -17.2499 -14.9631 
31938 3 19.8366 -17.3866 -19.0538 
31940 1 20.8315 -17.7232 -18.7549 
31018 3 17.48 -19.9068 -16.0379 
31941 1 19.4647 -18.4841 -19.1085 
31939 3 19.2046 -16.526 -17.8314 
31942 1 19.2599 -17.0928 -16.9038 
31943 1 18.1474 -16.3144 -18.1425 
28576 3 22.2999 -19.2396 -15.9114 
28578 1 21.8331 -18.2438 -15.9984 
31020 1 17.8988 -19.9677 -15.0581 
31949 1 21.7058 -16.2287 -16.4885 
31948 1 22.0447 -15.7168 -18.081 
31027 1 19.8147 -20.5183 -17.5125 
28579 1 21.667 -19.9732 -16.372 
31937 1 20.5095 -15.8412 -20.3601 
31933 3 19.8589 -16.7704 -20.4664 
28571 3 22.5113 -19.6582 -14.4376 
31035 1 19.9948 -20.9049 -20.2866 
31022 1 17.391 -21.1377 -17.8201 
31019 3 17.7985 -21.1831 -16.8387 
31024 3 19.2953 -21.4049 -17.1324 
31930 1 21.9198 -18.6658 -20.3181 
31936 1 18.8563 -16.4271 -20.8381 
31928 1 22.9289 -16.6531 -20.3106 
31026 1 19.7317 -21.451 -16.1324 
44664 1 -18.2354 -9.44494 -20.0961 
44661 1 -19.3472 -11.6727 -20.9589 
43899 3 -15.6931 -15.1427 -16.4099 
43898 3 -16.934 -14.4045 -15.9561 
43897 1 -17.7367 -13.6538 -17.8211 
43896 1 -16.4901 -12.6065 -17.0693 
44659 1 -16.7921 -11.9772 -19.4182 
43888 1 -20.8525 -11.4309 -15.1819 
43887 3 -19.759 -13.2325 -15.9191 
43893 3 -17.3637 -13.2553 -16.824 
44665 1 -18.1306 -10.3012 -18.6199 
44663 3 -20.2166 -9.62854 -19.1471 
44667 1 -20.7586 -10.4911 -18.7161 
44662 3 -18.835 -10.1485 -19.475 
43886 3 -20.9449 -12.2422 -15.946 
43889 1 -20.8963 -11.6425 -16.938 
44657 3 -18.848 -11.6509 -19.9633 
44660 1 -19.4538 -12.2607 -19.3707 
44656 3 -17.4086 -12.08 -20.2999 
43890 1 -19.918 -14.0073 -16.7599 
43830 1 -17.1124 -9.63722 -14.9129 
44658 1 -16.9447 -11.4306 -21.0606 
44654 1 -18.1474 -14.2439 -20.3771 
44651 3 -17.3105 -13.5963 -20.709 
43892 3 -18.4608 -12.4505 -16.1686 
43895 1 -18.7252 -11.5182 -16.7576 
44650 3 -15.8652 -14.1867 -20.5473 
47406 1 -15.9532 -9.60847 -17.9894 
43900 1 -17.7512 -15.0941 -15.8784 
43901 1 -16.7591 -14.1144 -14.8902 
43894 1 -17.9734 -12.0649 -15.1969 
43891 1 -19.6999 -13.7234 -14.9093 
43902 1 -14.9259 -14.3501 -16.5187 
44653 1 -15.5338 -14.1637 -19.465 
43913 1 -12.9376 -15.3206 -16.4083 
93661 1 -10.42 -11.1549 -19.6149 
43918 1 -11.3907 -15.2408 -18.1164 
43925 1 -10.775 -13.9984 -16.0467 
93657 1 -12.0366 -13.2733 -19.3588 
47409 1 -15.1517 -10.375 -15.8735 
47408 1 -13.5362 -10.1518 -16.8206 
93653 3 -11.9212 -12.7066 -20.2176 
93658 3 -10.4605 -12.1562 -20.0789 
93660 1 -9.81694 -12.8668 -19.4204 
47405 3 -14.4416 -9.67319 -16.3735 
43922 3 -9.8342 -14.5638 -15.8937 
43924 1 -9.97449 -15.0516 -14.9184 
93655 1 -12.5813 -10.7075 -19.6256 
93652 3 -12.8968 -11.5027 -20.3686 
93654 1 -13.8889 -11.7958 -19.9995 
47414 1 -12.0741 -10.1957 -14.6207 
93656 1 -12.1237 -13.4776 -20.9713 
93649 1 -14.5097 -9.67674 -21.1445 
43030 1 -3.57621 -15.4352 -15.5298 
43920 1 -8.86195 -15.2172 -17.8189 
43926 1 -8.84389 -12.6581 -15.1933 
43927 1 -8.51644 -13.1552 -16.7293 
43923 3 -8.66882 -13.5379 -15.7708 
41462 3 -5.07127 -15.5278 -18.6352 
41464 1 -5.08345 -15.5497 -17.5373 
43928 3 -7.39919 -14.0687 -15.1843 
43931 1 -7.10556 -15.0405 -15.4967 
43930 1 -6.54908 -13.4239 -15.4416 
41457 3 -4.31819 -14.3147 -19.1966 
41460 1 -3.24861 -14.4028 -18.7951 
41456 3 -4.97992 -12.963 -18.8936 
41459 1 -4.80119 -12.7762 -17.8169 
41451 3 -4.43058 -11.9345 -19.8555 
41466 1 -7.08482 -14.7684 -19.0064 
41458 1 -6.14365 -13.0295 -18.9036 
41461 1 -4.18504 -14.5502 -20.2002 
41450 3 -4.86441 -10.4855 -19.7317 
41453 1 -5.09474 -10.2627 -18.6303 
47438 1 -6.02328 -10.6474 -14.9976 
41455 1 -4.61198 -12.239 -20.8907 
47445 1 -8.06251 -10.7664 -16.4464 
47435 3 -6.3016 -9.82029 -14.4332 
41452 1 -5.75995 -10.2996 -20.3432 
43036 1 -3.22124 -13.1455 -15.9701 
43042 1 -3.39258 -10.9021 -15.7026 
47444 1 -9.19447 -9.80129 -15.4954 
47441 3 -8.34415 -9.78054 -16.1364 
41445 3 -3.83813 -9.46462 -20.1948 
47450 1 -7.96254 -9.86729 -18.979 
41454 1 -3.349 -11.9906 -19.6852 
41448 1 -2.88814 -9.83354 -19.7921 
93667 1 -8.15977 -10.6135 -21.181 
47439 1 -5.35911 -9.31666 -14.331 
93666 1 -7.62509 -12.2791 -20.9708 
43037 1 -1.58568 -13.309 -16.6986 
43043 1 -2.16725 -10.5497 -16.9002 
43033 3 -2.1227 -13.1901 -15.74 
43038 3 -1.61449 -11.8561 -15.1677 
7293 1 0.289626 -14.7044 -16.9945 
7290 3 1.25764 -14.7391 -17.4768 
7291 3 1.20261 -14.0349 -18.8986 
7295 1 2.22226 -14.0946 -19.2838 
7296 3 0.695874 -12.6189 -19.0883 
7299 1 -0.28722 -12.4948 -18.6557 
7294 1 0.548227 -14.6847 -19.5623 
7297 3 0.562282 -12.3488 -20.5982 
7302 3 -0.213625 -10.9621 -20.8592 
43039 3 -2.28689 -10.636 -15.8052 
7305 1 -1.13266 -11 -20.3102 
7304 1 0.452251 -10.182 -20.3972 
7298 1 1.29612 -11.8118 -18.5321 
7292 1 1.96888 -14.3552 -16.7082 
42260 1 3.43852 -11.9631 -15.3203 
43049 1 0.344536 -9.65291 -15.4964 
43032 3 -1.80054 -14.4624 -14.8768 
43040 1 -0.505583 -11.7506 -15.1874 
43034 1 -0.73788 -14.6872 -14.749 
7300 1 -0.0529084 -13.1416 -21.0931 
7301 1 1.47734 -12.3271 -21.0811 
42170 1 6.46734 -14.9851 -16.2677 
42172 3 7.9827 -15.3313 -17.8049 
42265 1 4.78126 -13.9256 -14.7211 
42259 1 5.19002 -10.5865 -16.1019 
42256 3 5.48194 -11.3684 -15.3108 
42258 1 5.93217 -12.2442 -15.9265 
42176 1 7.35204 -13.2459 -17.9258 
42180 1 9.31362 -14.2674 -20.0251 
42178 3 8.98127 -13.5561 -19.2857 
42177 1 6.98043 -14.154 -19.3942 
42173 3 7.72012 -14.0417 -18.5854 
42175 1 8.87259 -15.314 -17.1969 
42252 1 8.17794 -11.9248 -15.4805 
42181 1 9.88452 -13.3733 -18.6422 
42182 1 8.35568 -11.4155 -19.5041 
42179 3 8.72791 -12.2274 -20.1447 
42183 1 7.87905 -12.3523 -20.7897 
42250 3 8.01017 -10.9559 -14.9143 
42253 1 8.04294 -10.1706 -15.7248 
42257 3 4.16413 -11.8772 -14.545 
42251 3 6.58026 -10.9176 -14.341 
42184 3 9.93333 -11.8149 -20.9448 
32044 1 10.4131 -15.5685 -14.4492 
32035 3 12.4162 -15.4646 -16.4204 
42246 1 10.4981 -11.2491 -15.3088 
42186 1 10.665 -11.652 -20.1354 
79368 1 11.4184 -9.85852 -18.4953 
32041 3 11.0547 -14.6441 -14.3695 
32042 1 10.921 -13.7839 -16.3271 
79375 1 14.8037 -10.3701 -17.9932 
32037 1 13.319 -14.1647 -17.8191 
32034 3 13.5872 -15.0038 -17.1856 
32040 3 11.7347 -14.2268 -15.7016 
32029 3 14.9645 -14.6304 -16.4056 
32043 1 12.4634 -13.4243 -15.4484 
79374 1 13.4826 -10.7565 -19.2159 
42231 1 15.4073 -10.2626 -14.7521 
42240 1 13.1489 -10.7952 -14.7083 
79371 2 14.1993 -10.0215 -18.844 
79376 1 14.8518 -9.73199 -19.6516 
32033 1 14.7043 -14.0534 -15.5441 
32032 1 15.568 -14.0892 -17.1591 
79369 1 12.2167 -9.95813 -17.0182 
42247 1 10.6813 -9.69925 -14.9488 
42244 3 10.4534 -10.6344 -14.4182 
31946 1 19.4417 -14.7323 -16.7979 
31944 3 19.9674 -15.2761 -17.6032 
31945 3 21.4782 -15.4716 -17.1901 
31947 1 19.9366 -14.6538 -18.5231 
42222 1 16.6418 -10.3409 -16.7123 
42216 1 17.0066 -10.7982 -19.1565 
32023 3 16.8189 -15.4201 -14.7764 
42220 3 17.7195 -10.4807 -16.6414 
42221 3 18.134 -10.87 -15.1992 
42225 1 17.9567 -11.9864 -15.1344 
42213 1 17.9229 -13.0664 -20.0473 
42209 3 18.5085 -12.1463 -20.132 
42219 1 17.9845 -12.4855 -17.3726 
42214 3 18.0786 -11.0547 -19.0379 
42212 1 19.5791 -12.3925 -19.9375 
42217 1 18.573 -10.0992 -19.1792 
42215 3 18.3863 -11.5083 -17.6496 
42218 1 19.4749 -11.4451 -17.4571 
31953 1 21.4271 -13.2775 -16.6362 
31950 3 22.1458 -14.0494 -16.7299 
32026 1 17.4397 -14.6648 -15.2135 
42224 1 19.2057 -10.7619 -15.0892 
239 1 22.061 -10.2722 -18.6753 
31952 1 22.5621 -14.1365 -15.7223 
42223 1 17.9925 -9.43995 -16.8579 
236 3 22.7073 -9.41754 -18.8088 
233 1 22.4778 -9.82108 -15.6803 
43827 3 -17.7268 -8.94996 -14.34 
44671 1 -20.6211 -8.24364 -20.7313 
47394 1 -16.4681 -4.277 -19.4279 
44668 3 -20.9736 -9.23222 -20.4928 
47385 1 -21.2586 -4.48386 -19.4995 
44666 1 -20.2836 -8.7688 -18.451 
43835 1 -18.2736 -8.11229 -16.3029 
43844 3 -22.0171 -4.55645 -16.4017 
43832 3 -18.8049 -8.46242 -15.3787 
47407 1 -16.0646 -8.35145 -16.7591 
43841 1 -19.9143 -6.58994 -16.7988 
43838 3 -20.3773 -6.50475 -15.7992 
43833 3 -19.4315 -7.14638 -14.8047 
43842 1 -19.9196 -4.31672 -16.0756 
43839 3 -20.7328 -4.97939 -15.6253 
47393 3 -16.5718 -6.42732 -18.8077 
43836 1 -18.5566 -6.47965 -14.5097 
47396 1 -17.2617 -7.23857 -18.8258 
47387 3 -18.5734 -5.00444 -19.3923 
43843 1 -20.7709 -4.69653 -14.547 
47390 1 -19.0237 -6.01517 -19.4443 
47397 1 -16.4242 -6.05042 -17.7389 
47391 1 -18.7834 -4.68401 -18.4091 
47392 3 -17.0845 -5.20095 -19.6505 
43840 1 -21.3746 -7.12495 -15.933 
43834 1 -19.5427 -9.20796 -15.7193 
45759 1 -17.832 -3.86095 -14.738 
47386 3 -19.3102 -4.01516 -20.3626 
47381 3 -20.8138 -4.37166 -20.4958 
47395 1 -16.8322 -5.44419 -20.7039 
47384 1 -20.8325 -5.41721 -20.858 
43846 1 -21.9791 -4.90262 -17.4804 
47410 3 -13.8519 -8.87946 -15.1544 
47412 1 -14.6534 -8.34643 -14.5975 
47398 3 -15.2592 -7.06589 -19.3027 
47404 3 -15.3279 -8.89332 -17.3878 
47400 1 -14.5654 -6.29781 -19.5553 
47461 1 -9.83753 -5.51203 -20.2737 
47399 3 -14.5157 -7.93066 -18.2388 
47403 1 -13.7341 -8.45441 -18.7911 
47402 1 -13.8595 -7.38925 -17.5511 
47413 1 -13.2085 -8.00657 -15.388 
47453 3 -9.70789 -7.64167 -20.1581 
45773 1 -11.8316 -4.46247 -18.2244 
45768 3 -13.2056 -4.6437 -16.622 
45770 1 -13.8274 -5.50427 -16.8801 
45783 1 -9.77901 -3.97522 -17.3579 
45769 3 -12.6324 -3.86772 -17.8482 
47456 1 -10.4125 -7.75941 -19.2623 
45771 1 -12.4897 -5.1765 -15.9537 
47449 1 -9.87407 -9.28087 -17.5518 
47458 3 -10.0133 -6.37657 -20.9247 
45772 1 -13.4877 -3.71015 -18.6129 
45767 1 -14.7582 -3.31387 -16.5359 
45763 3 -14.124 -3.71539 -15.7671 
47401 1 -15.5255 -7.64697 -20.2258 
47457 1 -9.98458 -8.54197 -20.7699 
47462 1 -12.2567 -6.55508 -20.9065 
45762 3 -14.854 -4.341 -14.4931 
45764 1 -15.4365 -5.19973 -14.7152 
45789 1 -10.5227 -4.71567 -14.9208 
45786 3 -9.42366 -4.51575 -14.8187 
45781 3 -8.91174 -3.25207 -15.6042 
47442 1 -6.43755 -8.72812 -16.2098 
47451 1 -6.94694 -8.73668 -18.4046 
47454 1 -7.61112 -7.67097 -20.469 
47452 3 -8.33221 -7.67343 -19.5855 
47447 3 -7.99953 -8.85665 -18.5286 
47455 1 -8.14168 -6.74825 -19.0488 
47446 3 -8.85987 -8.92953 -17.2922 
47448 1 -8.97017 -7.84676 -16.9113 
41447 1 -4.70366 -8.0212 -18.8206 
41444 3 -4.29395 -8.04212 -19.8219 
95454 1 -5.29409 -6.19036 -17.5618 
95448 1 -6.17728 -5.47583 -19.7964 
95451 3 -5.81451 -5.28587 -17.1619 
47440 3 -7.17144 -9.03762 -15.4367 
95456 3 -5.22521 -4.89692 -15.7827 
95459 1 -4.19836 -4.4307 -15.9469 
47443 1 -7.5 -8.03092 -15.0678 
45788 1 -9.07641 -5.40495 -15.3372 
95450 3 -5.60195 -4.22869 -18.221 
95453 1 -4.53994 -4.10843 -18.3862 
95445 3 -6.40886 -4.46783 -19.4513 
95457 3 -4.91046 -6.14393 -14.8866 
41443 1 -3.70077 -6.0199 -19.9405 
95455 1 -6.89742 -5.53255 -17.1112 
95460 1 -4.61533 -7.0291 -15.5159 
95461 1 -5.73315 -6.41208 -14.2652 
41446 1 -5.12913 -7.71514 -20.536 
95458 1 -5.83463 -4.1312 -15.3046 
95449 1 -7.45937 -4.59865 -19.1807 
41439 3 -3.1643 -6.98049 -19.93 
45785 1 -7.93493 -3.64253 -15.9536 
95452 1 -5.92836 -3.29949 -17.8007 
95444 3 -6.12052 -3.33946 -20.4593 
95447 1 -5.09954 -3.37403 -20.8256 
95443 1 -8.08971 -3.08329 -20.9996 
43047 1 -2.42349 -8.41851 -15.5444 
43044 3 -1.8356 -9.26305 -15.2392 
43048 1 -0.450661 -8.68888 -16.8565 
43045 3 -0.458996 -8.88108 -15.738 
41440 1 -2.68787 -6.60672 -17.8332 
41438 3 -2.1488 -6.77222 -18.7989 
41436 1 -1.85397 -4.61777 -19.072 
41441 1 -1.52752 -7.71696 -18.6501 
41433 3 -1.21103 -5.51979 -18.9319 
43053 1 0.477339 -7.04429 -15.7528 
41427 3 0.818338 -6.83206 -19.9368 
41430 1 0.286003 -7.73538 -19.6253 
41426 3 1.8686 -6.55887 -18.8204 
41424 1 2.44278 -8.57523 -19.4023 
41429 1 1.38285 -6.70424 -17.79 
41428 1 2.21386 -5.43578 -18.7547 
41437 1 -0.693241 -5.27048 -17.9706 
41432 3 -0.201621 -5.71429 -20.1375 
43050 3 -0.151209 -7.56922 -14.9978 
43052 1 -1.02546 -6.89946 -14.9268 
41435 1 0.401074 -4.6928 -20.2799 
3825 1 2.35221 -4.35555 -16.43 
3821 3 2.1454 -4.08804 -15.3377 
41434 1 -0.708084 -5.7928 -21.1069 
41431 1 1.3372 -7.03674 -20.8644 
41421 3 2.93374 -7.67312 -19.0558 
95464 1 -2.79439 -5.63467 -14.4513 
41442 1 -2.77305 -6.98216 -21.006 
3877 1 2.81986 -3.46999 -19.6728 
3824 1 1.12497 -4.55389 -15.0239 
43058 1 2.64531 -7.98881 -14.5192 
41422 1 3.55189 -8.5017 -17.0211 
3874 3 3.62306 -3.31352 -20.4531 
41425 1 3.55533 -7.24685 -19.7809 
3822 1 3.52689 -5.7666 -14.647 
3820 3 3.29636 -4.67072 -14.4512 
3835 1 -0.802306 -3.21431 -15.6629 
41423 1 4.40811 -9.08382 -18.3738 
79353 3 9.23739 -6.49704 -20.43 
41420 3 3.95926 -8.1514 -18.0009 
41419 1 4.49388 -6.09478 -17.3587 
41415 3 4.96292 -7.07717 -17.58 
41418 1 5.59862 -6.85129 -18.4615 
41414 3 5.9237 -7.54919 -16.4022 
79361 1 8.49234 -7.18195 -18.4724 
79358 3 9.3801 -7.3452 -19.1397 
41417 1 6.6639 -8.35361 -16.7003 
41412 1 7.11102 -5.69901 -16.6735 
41409 3 6.77029 -6.31651 -15.8673 
41413 1 6.08642 -5.6123 -15.3188 
41416 1 5.32427 -8.06316 -15.6082 
79360 1 9.33467 -8.41159 -19.4454 
41408 3 7.92869 -6.68386 -14.9786 
3879 1 5.25766 -4.65364 -19.899 
41411 1 8.75212 -7.17579 -15.5843 
3885 1 7.66418 -3.82231 -19.0933 
3875 3 5.10482 -3.61619 -20.1165 
3878 1 5.61452 -3.62542 -21.1073 
79354 1 7.04604 -6.33369 -20.3609 
3823 1 4.24408 -4.18941 -14.7283 
79356 1 9.47587 -5.45157 -20.1743 
41406 1 8.4846 -4.59859 -14.775 
3891 1 9.77018 -3.44459 -17.5582 
79357 1 10.0576 -6.78342 -21.086 
79352 3 7.83435 -6.67118 -21.0732 
41410 1 7.59834 -7.49167 -14.3145 
79351 1 7.66509 -8.97483 -20.8882 
79370 3 13.2744 -8.8287 -18.5103 
79366 1 10.2921 -8.27694 -16.5946 
79362 1 10.8462 -6.06052 -18.0826 
79365 3 11.9653 -9.2361 -17.7816 
79373 1 12.9302 -8.49533 -19.4837 
79359 3 10.7347 -7.03219 -18.4645 
79364 3 11.1287 -8.00554 -17.2962 
79372 1 13.8569 -8.02007 -18.0933 
79363 1 11.4332 -7.06131 -19.269 
79367 1 11.8287 -7.52371 -16.6488 
1906 1 13.7396 -5.63069 -19.0305 
1913 1 15.0626 -6.068 -17.1824 
1916 1 13.1722 -4.76596 -15.6584 
1914 3 14.2642 -4.73969 -15.564 
1903 3 13.5811 -4.5323 -18.958 
1907 1 12.6593 -4.56289 -18.3595 
1917 1 14.3604 -3.70878 -15.1672 
1909 3 15.117 -4.98328 -16.8665 
1912 1 16.1397 -4.83624 -16.5847 
1908 3 14.7615 -3.982 -18.0755 
1911 1 15.732 -3.71832 -18.6111 
1902 3 13.2863 -3.78489 -20.293 
1910 1 14.5148 -3.06054 -17.5911 
1904 1 14.0128 -3.94046 -21.1019 
1905 1 12.3472 -4.32957 -20.6719 
55035 1 15.4259 -6.73716 -20.1205 
55031 3 16.1408 -6.49326 -20.9254 
3897 1 11.1162 -3.4221 -15.6418 
1919 1 14.4535 -6.76909 -14.7132 
1915 3 14.7137 -5.6672 -14.4817 
1918 1 15.8337 -5.45149 -14.4134 
55034 1 16.1826 -5.39229 -21.1078 
232 1 21.2706 -9.01861 -16.5355 
55029 1 17.5634 -6.12903 -18.7466 
55030 3 17.5679 -7.04473 -20.6627 
55032 1 17.4114 -8.03217 -20.1544 
55028 1 18.3763 -5.16798 -20.0046 
55025 3 18.3018 -6.19945 -19.5781 
55026 1 19.5936 -7.69692 -18.4623 
55024 2 19.6525 -6.76404 -19.1681 
55027 1 20.224 -7.03218 -20.0558 
55023 1 20.3077 -6.08194 -18.6231 
224 3 21.2232 -7.61292 -14.3316 
229 1 22.3399 -6.82258 -16.2121 
1116 1 17.7631 -3.50134 -15.268 
225 3 22.3982 -7.65508 -15.5014 
238 1 21.964 -8.6391 -19.1908 
264 1 22.0071 -3.30967 -19.9743 
226 1 20.2375 -7.86358 -14.755 
230 3 22.3446 -8.95868 -16.2731 
258 1 21.6392 -5.33193 -21.0594 
47388 1 -19.0643 -2.97511 -20.1282 
45758 1 -16.8092 -2.77686 -15.6743 
47643 1 -18.3867 -0.165816 -16.8851 
47638 3 -17.0811 0.755861 -18.3785 
47639 3 -18.0059 0.779033 -17.164 
47640 1 -17.636 0.702705 -19.329 
47646 1 -19.664 1.50051 -16.1761 
47644 3 -19.0917 1.82327 -17.1081 
47642 1 -17.3862 1.01664 -16.237 
45752 1 -19.755 -1.712 -15.577 
47649 1 -17.7034 3.16271 -16.2655 
47647 1 -19.8913 1.78537 -17.8069 
45750 3 -19.5277 -1.61397 -14.5109 
47645 3 -18.5188 3.21676 -16.897 
45756 3 -17.1563 -2.93603 -14.619 
47637 1 -16.8882 -1.36397 -18.1856 
47641 1 -16.53 1.71988 -18.488 
47655 1 -20.0875 3.1221 -14.3158 
47633 3 -16.2027 -0.50471 -18.2421 
47382 1 -21.3606 -2.35303 -20.7261 
47635 1 -15.8172 -1.20803 -20.3377 
45780 3 -9.77164 -3.01699 -16.7959 
45777 1 -11.6753 -1.92558 -18.4305 
45782 1 -9.31759 -2.30225 -17.5177 
45774 3 -12.1393 -2.44677 -17.5216 
45775 3 -11.1679 -2.43208 -16.3365 
45776 1 -12.951 -1.71847 -17.3053 
45778 1 -11.5518 -2.94053 -15.4048 
47636 1 -15.6499 -0.447024 -17.344 
45766 1 -13.613 -2.72911 -15.5249 
47630 1 -15.3036 1.05691 -20.1822 
47627 3 -14.4762 0.348943 -19.9235 
47631 1 -14.0252 0.825188 -19.0039 
7472 1 -12.7501 1.73368 -16.1675 
7470 3 -13.3887 2.29047 -15.4945 
45779 1 -10.9263 -1.41732 -15.9785 
4742 1 -9.93463 1.23903 -20.0517 
7473 1 -12.663 2.90742 -14.9006 
7469 1 -14.9813 0.790695 -15.1119 
7465 3 -14.2044 1.32143 -14.5554 
7467 1 -12.7913 -0.42218 -14.579 
7475 1 -15.04 2.6671 -16.777 
4737 1 -9.35824 1.63171 -17.6225 
47632 3 -15.2175 -0.894571 -19.4589 
4730 1 -9.23656 1.43683 -14.6472 
7479 1 -13.3359 3.11238 -18.1706 
47634 1 -14.5605 -1.73529 -19.2995 
47624 1 -12.3987 2.15466 -20.851 
47628 1 -12.5463 -0.194344 -20.8257 
47626 3 -13.4908 0.289897 -21.0486 
47623 1 -14.768 2.93749 -20.8769 
4738 1 -8.86494 -0.612816 -18.6111 
4732 1 -8.50699 -0.425332 -16.0119 
4740 3 -8.8734 0.926274 -20.0804 
4734 3 -8.34695 1.2453 -17.5857 
4735 3 -8.29616 0.274257 -18.8233 
4739 1 -7.30595 -0.212818 -19.0434 
4729 3 -8.02605 0.592555 -16.1861 
3843 1 -4.86088 -1.59158 -17.4908 
4741 3 -8.10702 2.27388 -20.5067 
4736 1 -7.70534 2.12798 -17.6891 
4733 1 -7.01497 0.217283 -16.4589 
4728 3 -8.09847 1.39462 -14.8649 
3845 3 -4.21322 0.292114 -19.5801 
3849 1 -5.18528 -0.237769 -19.6615 
3848 1 -4.4587 1.28095 -19.1579 
4726 1 -6.36648 2.76794 -15.0043 
4723 3 -7.46523 2.82506 -14.81 
3850 3 -3.94533 0.722584 -21.0158 
7431 1 -3.24303 2.28029 -14.7306 
4745 1 -7.97637 3.01423 -19.7102 
4744 1 -7.11049 2.11175 -20.9879 
4743 1 -8.9197 0.231854 -20.9595 
95446 1 -6.23451 -2.41808 -19.9704 
3839 3 -3.89476 -1.01766 -17.3638 
3842 1 -3.98661 -0.0920535 -16.8329 
3846 1 -3.21326 -1.64874 -19.3415 
3844 3 -3.32397 -0.650116 -18.8311 
3840 1 -3.30712 -2.09101 -15.6414 
3838 3 -2.89477 -1.8579 -16.596 
3851 3 -2.91221 1.86264 -21.1013 
45784 1 -8.73306 -2.36042 -14.9667 
3871 1 1.13711 -1.91017 -21.0802 
3826 3 2.13243 -2.55022 -15.4634 
3830 1 0.810804 -2.49471 -17.2144 
3841 1 -2.78645 -2.91318 -16.9929 
3847 1 -2.34498 -0.270841 -18.6418 
3831 1 1.07722 -0.898027 -16.4343 
3836 1 -1.11403 -1.04317 -17.5334 
3833 3 -1.45945 -1.28898 -16.5195 
3827 3 0.893716 -1.99657 -16.2424 
3837 1 -1.48927 -0.272884 -16.1068 
3832 3 -0.544194 -2.12767 -15.607 
7414 1 1.12966 1.65005 -17.9882 
7419 1 -0.730094 2.25772 -16.7416 
7430 1 -1.60173 1.54051 -14.8445 
7418 1 0.553128 2.58602 -15.7016 
7411 3 1.02038 2.72533 -17.7632 
7416 3 0.0871418 2.94046 -16.6082 
3854 1 -2.35798 1.9732 -20.0884 
3861 1 -0.215399 1.02826 -20.646 
3869 3 3.34869 -1.85979 -20.9861 
3872 1 3.58233 -1.13336 -20.2129 
3834 1 -0.64918 -1.97898 -14.5699 
3829 1 2.23751 -2.04576 -14.4661 
7407 1 2.99792 0.83306 -18.926 
3828 1 2.94845 -2.12854 -16.0458 
7405 3 3.27841 3.02635 -18.8624 
7415 1 0.435428 3.08927 -18.6219 
45921 1 3.56834 2.3188 -14.8061 
3860 1 -1.13869 -0.31504 -21.156 
7397 1 7.11829 0.739489 -21.0518 
7403 1 4.35658 1.50881 -20.9603 
3888 1 7.45634 -2.18458 -16.9932 
3882 1 5.42562 -2.67507 -18.1963 
3880 3 5.82182 -2.65172 -19.1806 
3884 1 7.86419 -2.44374 -19.9728 
3881 3 7.37138 -2.83708 -19.0832 
7402 1 5.26318 0.399726 -19.9936 
3889 1 7.84459 -1.02063 -18.1093 
45915 1 5.6081 -0.105615 -15.9624 
7404 3 3.82136 1.56314 -18.8596 
3883 1 5.54482 -1.58595 -19.4376 
3886 3 8.04347 -2.06312 -17.8926 
3887 3 9.53833 -2.43322 -17.6179 
7406 1 4.23708 1.43631 -17.8867 
7401 1 6.6421 2.36788 -19.0542 
4983 1 8.79877 2.07572 -15.6639 
45910 1 7.08825 -1.67962 -14.6896 
45911 1 8.0263 -0.338421 -14.7102 
7399 3 4.88597 1.43046 -20.0232 
7398 3 6.12895 2.32009 -20.054 
45916 1 5.93661 2.07646 -15.7216 
3894 1 9.35685 -1.84943 -15.4505 
45912 3 5.82965 0.111179 -14.8962 
45914 1 4.93402 -0.306999 -14.5158 
45907 3 7.06386 -0.710794 -14.2872 
45913 3 5.75417 1.67357 -14.7426 
4979 1 9.60897 2.52268 -17.771 
3892 3 10.0273 -1.76442 -16.3071 
4980 3 9.85991 2.33231 -15.661 
7396 1 7.99585 2.35422 -21.1149 
1305 1 10.1959 2.70957 -21.177 
3890 1 10.1753 -2.07819 -18.4757 
3895 1 10.233 -0.693077 -16.5005 
1900 1 12.1858 -2.23795 -19.4023 
3896 1 11.8682 -2.57782 -16.7828 
3893 3 11.281 -2.3571 -15.9245 
1310 1 12.8671 1.80378 -20.7111 
3902 1 12.6826 -0.0567073 -16.0545 
1901 1 13.961 -1.90596 -19.7008 
1897 3 13.0499 -2.27995 -20.1438 
1125 1 15.8799 -0.615964 -17.8842 
3903 1 13.965 -1.17644 -15.9133 
3899 3 13.1829 -0.749786 -15.3709 
1311 1 11.7904 1.99966 -19.3234 
1314 1 14.0314 1.67751 -18.6259 
1307 3 12.5852 2.49475 -19.8736 
3908 1 13.977 1.82091 -15.8837 
3909 1 15.4606 1.15616 -15.5004 
3898 3 12.1895 -1.71472 -14.7773 
1317 1 15.2558 2.73721 -20.364 
1312 3 13.7522 2.63415 -18.8655 
4982 1 10.3656 1.28803 -15.8152 
1315 1 13.672 3.22343 -17.9617 
1130 1 16.2771 -2.2409 -20.2003 
1320 1 16.4902 2.33156 -18.3128 
3900 1 12.7691 -2.56154 -14.352 
4975 3 10.073 3.16924 -16.9948 
3905 3 14.5467 1.40666 -15.0287 
3904 3 13.8018 0.239036 -14.3953 
4981 3 10.2149 3.03107 -14.3434 
1131 1 17.9122 -2.62739 -19.6303 
1119 1 16.5458 -1.32211 -15.4007 
1129 1 16.6362 0.174141 -20.1338 
261 3 21.5198 -2.73307 -20.8589 
1114 3 18.1676 -2.57879 -14.7987 
1117 1 19.2652 -2.75375 -14.8662 
1122 1 17.5155 -2.49638 -17.4806 
265 1 20.4689 -2.81645 -20.7154 
1127 3 17.309 -1.8825 -20.1729 
1118 1 18.0055 -0.391692 -15.3969 
1121 3 16.9386 -0.422787 -18.0107 
1115 3 17.584 -1.38111 -15.5976 
1124 1 17.1722 0.577919 -17.6661 
1126 3 17.3524 -0.448645 -19.5218 
1120 3 17.742 -1.49757 -17.1823 
1128 1 18.303 -0.0402819 -19.7122 
1123 1 18.7726 -1.39278 -17.4434 
270 1 20.295 -0.595251 -19.2166 
272 3 21.9916 -1.27731 -18.1528 
273 3 21.839 -0.237293 -16.913 
275 1 21.4759 -2.25421 -17.8871 
267 3 21.3717 -0.611037 -19.4046 
276 1 20.7976 0.0768825 -16.9267 
278 3 22.3384 -0.899889 -15.6698 
1328 1 19.3603 2.37281 -17.7827 
1329 1 18.1043 3.03923 -16.6725 
281 1 21.8964 -1.85101 -15.5233 
1332 1 20.2271 2.98334 -15.5827 
266 3 21.7902 -1.23653 -20.7117 
271 1 21.5656 0.488625 -19.3423 
287 1 20.0903 0.694793 -14.9836 
279 3 22.1024 -0.055104 -14.3659 
277 1 22.3386 0.772946 -17.0643 
269 1 22.8988 -1.07003 -20.749 
282 1 22.7633 0.836158 -14.3565 
50782 1 20.9477 3.05628 -21.1187 
47648 1 -18.1713 3.55805 -17.918 
47654 1 -18.6995 4.22022 -14.3876 
47651 3 -19.701 4.06971 -14.7249 
47599 1 -20.6276 4.44098 -19.7343 
47596 3 -21.2151 5.25567 -20.072 
47605 1 -18.5659 5.18948 -20.5509 
47650 3 -19.5649 4.19968 -16.262 
47603 3 -17.8154 7.15415 -20.8568 
47652 1 -20.5491 3.97017 -16.72 
47606 1 -17.4076 7.12032 -19.8108 
47600 1 -20.1328 6.99455 -19.1216 
47597 3 -20.2615 6.53415 -20.0901 
47658 1 -21.4203 5.29041 -15.0773 
47653 1 -19.3483 5.22603 -16.555 
47602 3 -18.9893 6.11631 -20.8777 
16454 3 -18.1082 9.49267 -14.4227 
16455 3 -16.9342 8.51508 -14.5782 
16463 1 -16.2087 8.61499 -16.6012 
47659 1 -20.1167 6.15707 -14.3586 
16460 3 -15.7727 8.80345 -15.6384 
47656 3 -20.5948 5.15829 -14.2799 
16458 1 -17.3287 7.44355 -14.7753 
47601 1 -20.6844 7.37376 -20.5596 
17271 1 -21.9624 9.05117 -16.3874 
47598 1 -21.3756 4.92064 -21.0735 
7471 3 -14.2633 3.2514 -16.2571 
47613 1 -15.6004 5.36962 -20.335 
7476 3 -13.5879 3.92062 -17.4667 
7474 1 -14.9054 3.98698 -15.7386 
7478 1 -14.414 4.53674 -17.9038 
7485 1 -11.8823 5.34374 -19.2758 
16464 1 -13.8314 8.02021 -16.3738 
7484 1 -12.8704 6.53323 -18.3308 
7477 3 -12.4097 4.80859 -17.0951 
7482 3 -12.0273 5.79695 -18.2651 
7481 1 -12.6587 5.42886 -16.2112 
7480 1 -11.5358 4.31096 -16.7572 
16475 1 -11.5381 8.83107 -15.7366 
16461 3 -14.5871 7.82768 -15.5054 
16465 1 -14.8556 6.74661 -15.5639 
7483 3 -10.7419 6.54456 -17.8909 
7486 1 -10.9145 7.15281 -16.9937 
7487 1 -10.4673 7.27881 -18.6055 
7488 3 -9.49471 5.62232 -17.8366 
7491 1 -9.32077 4.95754 -16.9526 
7490 1 -9.48618 4.87335 -18.7578 
47618 1 -13.0398 4.49119 -21.1046 
4727 1 -7.82219 3.5863 -15.5651 
7492 1 -8.19956 7.32719 -17.2623 
7493 1 -8.17312 7.05136 -19.0235 
7489 3 -8.19174 6.51386 -18.0601 
7496 1 -7.00582 4.69947 -18.6336 
7494 3 -6.83101 5.70564 -18.0281 
7497 1 -6.4443 5.48193 -17.042 
7502 1 -5.2444 7.75549 -17.0599 
7495 3 -5.6491 6.34623 -18.657 