ITEM: TIMESTEP
110000
ITEM: NUMBER OF ATOMS
97821
ITEM: BOX BOUNDS pp pp pp
-22.0999 113.677
-21.8397 65.9581
-21.1856 62.042
ITEM: ATOMS id type x y z 
44637 1 -21.2866 -17.1554 -17.4328 
44633 3 -20.9085 -18.1028 -17.7177 
44636 1 -20.2615 -18.5238 -16.9687 
41910 1 -19.8569 -20.1513 -15.0751 
44638 3 -19.9777 -17.847 -18.9832 
44639 3 -18.8442 -16.8863 -18.5896 
92464 1 -15.6647 -18.4421 -17.8878 
44632 3 -22.0795 -19.0706 -18.0457 
43903 1 -17.2129 -16.104 -15.6246 
44640 1 -20.5933 -17.5036 -19.8373 
44627 3 -21.7415 -20.3614 -18.8261 
92462 3 -16.0022 -19.554 -17.8546 
44631 1 -20.7626 -20.6976 -18.4712 
92461 1 -16.8671 -19.4971 -15.8773 
92465 1 -17.0167 -19.4136 -18.3069 
92457 3 -16.0156 -20.0008 -16.3853 
44630 1 -21.7252 -20.0292 -19.8932 
92472 1 -17.474 -20.3402 -20.5725 
92456 3 -16.0969 -21.5357 -16.1873 
92454 1 -18.2733 -21.3184 -16.734 
44642 1 -18.2766 -17.2463 -17.7178 
44641 1 -19.5583 -18.8112 -19.2566 
92469 3 -16.5279 -20.7454 -20.9266 
44643 1 -19.288 -15.8855 -18.2722 
41913 1 -21.9209 -21.4137 -14.5655 
92459 1 -15.9995 -21.8084 -15.1473 
44645 3 -16.642 -15.8246 -19.2895 
44644 3 -17.92 -16.562 -19.7815 
44649 1 -16.0009 -16.4582 -18.5998 
44648 1 -15.9486 -15.6275 -20.1464 
92473 1 -16.55 -21.7833 -20.6019 
44647 1 -17.5664 -17.3918 -20.2899 
44646 1 -18.403 -15.948 -20.5168 
92468 3 -15.2572 -20.056 -20.292 
92471 1 -15.0416 -19.0515 -20.6509 
92460 1 -15.1403 -19.5194 -15.9747 
92463 3 -15.0603 -20.2747 -18.8027 
92467 1 -14.0075 -20.0901 -18.6067 
41123 1 -11.7363 -19.9842 -14.7435 
43905 3 -14.6722 -16.6537 -14.9029 
43915 1 -11.7407 -16.6827 -15.0051 
41116 1 -10.4769 -21.0128 -16.1804 
43908 1 -15.0777 -17.4913 -15.4618 
43910 3 -13.7047 -15.9182 -15.8493 
43911 3 -12.3807 -16.6838 -15.9577 
43914 1 -12.5114 -17.7727 -15.997 
43916 3 -11.5096 -16.078 -17.1073 
43919 1 -10.92 -16.9595 -17.4569 
41110 1 -9.5324 -21.3466 -18.8514 
92470 1 -14.3729 -20.5366 -20.826 
41120 3 -12.2382 -20.9014 -14.3578 
41134 1 -9.21075 -20.1579 -14.6055 
43918 1 -12.15 -15.8353 -17.9937 
41119 1 -13.2083 -21.4823 -16.1734 
43913 1 -14.0123 -15.8812 -16.8756 
41113 1 -11.8679 -21.5897 -18.197 
92466 1 -15.1719 -21.4118 -18.7183 
41147 1 -8.07125 -21.3852 -16.0896 
41143 1 -8.16759 -18.9461 -16.6785 
41146 1 -7.38384 -21.144 -17.7106 
41144 3 -7.20387 -20.9903 -16.6328 
41149 1 -5.01008 -21.3934 -16.6458 
41139 3 -7.18037 -19.36 -16.4387 
42122 1 -3.57136 -19.5119 -17.5654 
41142 1 -6.46133 -19.0378 -17.1701 
41465 1 -5.52648 -16.5403 -17.9366 
41467 1 -7.5738 -16.9554 -18.989 
42119 3 -3.01422 -19.7194 -18.499 
42118 3 -4.05479 -19.7208 -19.743 
41463 3 -7.11519 -16.0469 -19.3335 
42121 1 -4.93501 -19.1235 -19.6213 
42120 1 -4.49108 -20.6594 -19.8262 
43030 1 -3.92944 -16.4874 -15.5084 
41462 3 -6.09172 -15.6681 -18.259 
41138 3 -6.72903 -18.9483 -14.9876 
41141 1 -6.0672 -18.0691 -15.0514 
42113 3 -3.36581 -19.2886 -21.0443 
41148 1 -5.86569 -21.5093 -15.0867 
41140 1 -6.01477 -19.6314 -14.4886 
43028 1 -3.51415 -18.7025 -15.3037 
43027 3 -2.88765 -16.6591 -15.3456 
43026 3 -2.74063 -18.1464 -14.7284 
42116 1 -2.91595 -18.3008 -20.956 
41473 1 -7.67507 -18.1777 -20.9638 
41145 3 -5.95903 -21.6967 -16.1488 
41137 1 -8.60711 -17.7567 -14.5516 
41468 3 -6.71298 -16.2893 -20.8235 
41470 1 -5.77507 -16.8061 -20.8488 
41105 1 -8.67574 -21.3689 -20.8463 
41472 1 -8.75255 -16.8381 -21.1464 
42123 1 -2.33731 -18.8342 -18.3928 
42117 1 -2.6427 -20.093 -21.0748 
42124 3 -2.27425 -21.0367 -18.4242 
42128 1 -2.29665 -20.9194 -16.3111 
42125 3 -1.5182 -21.1557 -17.069 
42129 1 -0.764606 -20.3768 -16.9203 
42135 1 0.562367 -21.4909 -15.5595 
7288 1 0.598946 -16.7435 -18.5208 
7282 1 1.67506 -19.0734 -16.1103 
7279 3 1.98244 -18.6314 -17.0953 
7289 1 2.23275 -16.715 -19.1421 
7285 3 1.59636 -16.4112 -18.2743 
7284 3 2.08985 -17.1155 -16.9433 
7283 1 1.0192 -18.7735 -17.5821 
7287 1 1.35405 -16.7423 -16.1232 
7273 3 2.80353 -20.9696 -17.795 
7278 3 3.03354 -19.448 -17.8953 
7280 1 3.00985 -19.2055 -18.9229 
43031 1 -2.42427 -16.6142 -16.359 
43029 1 -1.77989 -18.6133 -14.894 
7277 1 1.74547 -21.0789 -18.0655 
7286 1 3.06917 -16.6588 -16.6482 
7276 1 2.86994 -21.2864 -16.7473 
42126 1 -1.55121 -21.2381 -19.267 
7274 1 3.4703 -21.6016 -19.8423 
7281 1 4.05519 -19.1871 -17.5648 
31847 1 7.02699 -20.293 -18.0069 
31849 3 8.16973 -18.0878 -19.2206 
31852 1 8.65734 -17.5737 -18.4397 
42165 1 6.08529 -17.9916 -16.8965 
42161 3 6.07857 -17.4674 -15.909 
42168 1 8.1638 -16.7667 -16.2416 
42166 3 7.11321 -16.3526 -16.138 
31853 1 7.06689 -17.9632 -19.0497 
42171 1 6.65711 -15.7479 -18.167 
31848 3 8.53199 -19.6354 -19.3583 
42169 1 7.28049 -15.8482 -15.1973 
42162 1 7.49423 -19.0141 -15.0729 
42164 1 5.04881 -17.0674 -15.7965 
31850 1 8.08121 -20.0282 -20.2935 
42159 1 5.04138 -20.1724 -15.4669 
42160 3 6.43122 -18.5147 -14.8305 
31851 1 9.5881 -19.7347 -19.5109 
31846 1 8.64575 -20.1131 -17.3434 
31843 3 8.03918 -20.4936 -18.1865 
31855 3 10.0389 -17.0049 -20.6836 
31854 3 8.56648 -17.2752 -20.5 
42155 3 5.38189 -19.643 -14.5574 
31856 1 8.07272 -16.2984 -20.5945 
7275 1 4.66839 -21.6428 -18.4329 
78935 1 5.16016 -18.7733 -21.1788 
31858 1 10.6013 -17.9501 -20.684 
31005 1 11.6242 -19.5637 -17.7264 
31003 1 11.6037 -18.2238 -15.4922 
31007 3 14.9484 -19.4022 -17.28 
31010 1 14.9287 -18.7982 -16.3608 
31006 3 13.6273 -20.2118 -17.427 
78809 1 15.3404 -17.5533 -20.1018 
32038 1 13.1952 -16.3695 -16.3636 
31011 1 14.9314 -18.6635 -18.0801 
31001 3 12.4374 -19.333 -17.0642 
31004 1 12.5569 -18.2606 -17.36 
31012 3 16.2499 -20.225 -17.4527 
78805 1 15.2798 -19.6989 -20.7935 
32039 1 12.4344 -16.0529 -17.8565 
32031 1 16.337 -17.0153 -16.5955 
31014 1 16.0418 -21.0089 -18.1931 
32030 1 15.1812 -16.5907 -15.4495 
32028 3 16.033 -16.197 -16.0038 
32036 1 14.5522 -16.225 -18.4603 
31000 3 12.14 -19.1927 -15.5583 
32035 3 13.0518 -15.5784 -17.1299 
32044 1 10.8091 -15.7136 -15.8976 
31002 1 13.1813 -19.0636 -15.0616 
30995 3 11.3758 -20.3827 -14.8908 
30998 1 10.5207 -20.5974 -15.5823 
31008 1 13.5995 -20.5121 -18.4822 
31009 1 13.6867 -21.1565 -16.7859 
30999 1 11.9322 -21.3231 -15.0207 
31015 1 16.4603 -20.7043 -16.4824 
31859 1 10.428 -16.4285 -19.8022 
78799 1 13.0834 -20.6893 -21.101 
78802 1 13.0842 -18.6287 -21.1003 
78806 3 15.7508 -17.7175 -21.1495 
31020 1 19.1078 -20.2982 -17.0753 
31027 1 21.0975 -21.0679 -19.2771 
31017 1 17.1468 -18.9976 -19.0394 
31013 3 17.4188 -19.3747 -18.0125 
31016 1 17.5592 -18.4884 -17.3632 
31021 1 19.6467 -19.293 -18.4342 
31938 3 19.7427 -16.8371 -20.0956 
31940 1 20.5087 -17.2568 -19.4148 
31018 3 18.7899 -19.9954 -18.1388 
31941 1 19.098 -17.7146 -20.3402 
31939 3 18.8694 -15.8269 -19.4743 
31942 1 18.1204 -16.3245 -18.8246 
31949 1 19.7291 -15.9123 -16.7087 
31948 1 21.1822 -16.1119 -17.6306 
28579 1 22.9344 -21.3795 -17.3167 
31022 1 18.8967 -20.8214 -20.2097 
31930 1 22.3195 -18.3174 -20.4009 
32025 1 17.7164 -17.8413 -14.8301 
32023 3 17.1742 -15.702 -15.0025 
31019 3 18.9459 -21.1944 -19.2024 
28575 1 22.5614 -20.6059 -15.1247 
78808 1 16.8761 -17.8163 -20.9538 
32020 1 19.7105 -16.2698 -14.3994 
29150 1 18.48 -20.8155 -14.811 
31024 3 20.3027 -21.7976 -19.1414 
29148 3 17.9573 -21.6719 -14.3772 
31928 1 23.0483 -15.9897 -20.4187 
43899 3 -16.7778 -15.2436 -15.1006 
43897 1 -19.5417 -15.3441 -15.3023 
43902 1 -16.2116 -14.6678 -15.8806 
44650 3 -16.8253 -14.4286 -18.566 
44658 1 -16.9198 -11.6089 -18.2806 
43898 3 -17.859 -14.3845 -14.4242 
43896 1 -18.9849 -14.0344 -16.3419 
44659 1 -18.2742 -12.5151 -17.3781 
43887 3 -21.5633 -13.4542 -15.473 
43893 3 -19.1662 -14.2971 -15.2727 
44665 1 -19.0127 -10.0069 -17.0772 
44667 1 -21.5061 -10.2886 -18.1807 
44662 3 -19.1985 -10.0011 -18.1472 
44654 1 -18.7297 -13.7957 -19.5603 
44657 3 -18.9384 -11.2834 -18.9473 
44660 1 -19.8673 -11.8445 -19.0532 
44656 3 -17.8632 -12.1802 -18.4014 
43890 1 -21.4207 -13.0084 -16.4823 
43892 3 -20.3196 -13.5148 -14.5752 
43895 1 -19.9392 -12.4829 -14.3381 
43901 1 -17.4006 -13.4424 -14.4266 
43891 1 -21.7268 -14.5384 -15.7054 
44653 1 -17.3057 -14.5178 -17.5666 
44663 3 -20.7668 -9.54222 -18.3563 
44661 1 -18.7004 -10.9784 -19.9236 
44651 3 -17.7095 -13.4082 -19.3029 
44670 1 -20.5798 -9.40749 -20.6174 
44655 1 -17.2003 -13.1499 -20.2456 
95089 1 -20.883 -14.0365 -20.1424 
44652 1 -15.8791 -13.9761 -18.4123 
95085 3 -21.6444 -13.933 -20.9308 
43921 1 -9.59771 -15.2754 -16.2251 
43917 3 -10.5134 -14.9362 -16.7227 
43912 1 -13.6177 -14.8888 -15.5058 
93661 1 -10.6397 -11.9596 -19.6579 
43925 1 -11.8983 -13.3289 -16.0364 
93657 1 -11.1926 -14.8324 -20.1404 
47409 1 -14.6345 -10.877 -17.0707 
93653 3 -11.5628 -13.8762 -20.6028 
47405 3 -14.3111 -9.82118 -17.0288 
43922 3 -10.9887 -13.7777 -15.7708 
43924 1 -11.1982 -14.2701 -14.7925 
93655 1 -13.4172 -13.325 -19.3471 
93652 3 -13.1222 -13.5448 -20.392 
47414 1 -12.0063 -9.8899 -15.2937 
47410 3 -14.1608 -9.44613 -15.5314 
93654 1 -13.7974 -14.3816 -20.6559 
93649 1 -15.3213 -11.5595 -20.0292 
93658 3 -10.4239 -12.8147 -20.3292 
47412 1 -15.0543 -9.54596 -14.8628 
47415 1 -13.0222 -11.2528 -15.2976 
47411 3 -12.9909 -10.2452 -14.881 
43926 1 -10.1408 -11.9927 -14.7176 
43923 3 -9.85937 -12.7282 -15.489 
43920 1 -10.1222 -14.5267 -17.6611 
93660 1 -9.65611 -13.3771 -19.736 
43927 1 -9.76876 -12.0563 -16.3604 
47406 1 -15.6226 -9.42102 -18.6881 
47408 1 -13.2843 -9.81103 -17.4931 
93646 3 -14.9495 -11.6406 -21.0587 
93650 1 -12.8052 -11.4879 -20.8692 
93645 1 -14.4055 -9.57197 -21.0785 
41464 1 -6.55633 -15.2616 -17.323 
41466 1 -7.83805 -15.2459 -19.3091 
43928 3 -8.42547 -13.2043 -15.1878 
43931 1 -8.09182 -13.8272 -16.004 
43930 1 -7.64982 -12.4314 -15.0549 
41457 3 -5.11363 -14.5486 -18.8192 
41460 1 -4.32441 -14.3552 -18.0508 
41456 3 -5.79559 -13.2587 -19.2374 
41459 1 -6.68867 -13.0501 -18.6852 
41451 3 -4.71656 -12.1624 -19.0078 
41458 1 -6.12681 -13.1946 -20.2955 
41461 1 -4.55569 -14.8838 -19.6918 
41450 3 -5.00982 -10.7075 -19.3025 
41453 1 -5.90774 -10.3852 -18.6898 
47438 1 -5.85667 -10.1277 -14.9988 
41455 1 -3.75343 -12.4197 -19.5724 
47445 1 -7.8072 -10.0025 -17.0456 
41452 1 -5.31616 -10.5804 -20.3606 
43042 1 -3.53286 -11.5198 -14.2873 
41445 3 -3.89663 -9.75844 -18.8228 
41454 1 -4.43543 -12.2056 -17.9048 
93666 1 -7.7733 -12.1168 -20.8384 
43036 1 -3.786 -14.1203 -15.0863 
41448 1 -3.75365 -9.70121 -17.7333 
43043 1 -2.86916 -11.415 -15.8892 
93667 1 -8.82069 -10.6591 -20.877 
41449 1 -2.96623 -10.2848 -19.2528 
47444 1 -8.87433 -9.55824 -15.6776 
43039 3 -2.59724 -11.5906 -14.8112 
43032 3 -2.23286 -15.4118 -14.5592 
43034 1 -1.11203 -15.4615 -14.6841 
43037 1 -2.56434 -14.1961 -16.3006 
43033 3 -2.7022 -14.1432 -15.2359 
43038 3 -1.82943 -12.9654 -14.7228 
7293 1 0.947836 -14.6557 -17.2273 
7290 3 1.43491 -14.9108 -18.2067 
7291 3 0.852042 -14.267 -19.5518 
7295 1 1.63954 -14.4644 -20.2912 
7296 3 0.434125 -12.799 -19.5805 
7299 1 -0.407679 -12.599 -18.858 
7294 1 -0.00849889 -14.874 -19.9473 
7302 3 -0.263124 -10.816 -20.9904 
7305 1 -1.23517 -10.7767 -20.4039 
7304 1 0.411199 -10.2236 -20.3515 
7298 1 1.30509 -12.1348 -19.082 
7292 1 2.413 -14.3047 -18.1248 
42260 1 2.27222 -12.2399 -14.6344 
43049 1 0.255056 -10.7414 -14.6959 
43040 1 -0.888965 -12.9067 -15.2282 
43044 3 -1.85988 -10.2559 -14.4139 
43045 3 -0.508631 -10.0418 -15.0741 
42265 1 3.45803 -14.6027 -15.2078 
43048 1 -0.613427 -10.2824 -16.169 
43047 1 -2.49325 -9.42112 -14.8061 
7297 3 0.176144 -12.255 -20.9761 
42167 3 6.82006 -15.2987 -17.1761 
42174 1 8.92428 -14.8511 -17.662 
42170 1 5.95058 -14.6332 -16.9991 
42172 3 8.00402 -14.3508 -17.4462 
42259 1 4.10187 -10.7808 -15.2023 
42256 3 4.42058 -11.8239 -14.8984 
42258 1 4.55721 -12.319 -15.8842 
42176 1 6.8796 -12.6696 -18.5592 
42180 1 9.67364 -13.4961 -19.6823 
42178 3 8.98867 -12.7051 -19.3363 
42177 1 7.32426 -14.0069 -19.6389 
42173 3 7.71103 -13.4072 -18.7091 
42175 1 8.10547 -13.6673 -16.5576 
42252 1 7.06951 -12.096 -15.6501 
42182 1 7.78531 -11.009 -19.9139 
42179 3 8.48873 -11.7447 -20.3636 
42183 1 7.8071 -12.2529 -21.0845 
42250 3 6.90501 -11.4064 -14.7949 
42253 1 6.77012 -10.3739 -15.1699 
42247 1 9.15636 -9.80082 -14.3237 
42181 1 9.49562 -12.1835 -18.4817 
42246 1 9.73414 -11.1691 -15.2631 
42244 3 9.36831 -10.8834 -14.2716 
32045 1 10.4832 -13.9504 -15.5101 
42186 1 10.3045 -10.5188 -20.739 
32042 1 11.9535 -13.8076 -17.377 
79375 1 13.3769 -10.0512 -19.1687 
32037 1 14.3175 -14.4521 -18.5625 
32034 3 14.3963 -15.2967 -17.8384 
32040 3 12.3137 -14.39 -16.5562 
32029 3 15.6873 -15.0424 -16.9928 
32043 1 12.9605 -13.6681 -16.0415 
42231 1 14.4246 -10.6895 -15.1124 
42240 1 12.1395 -10.9132 -14.6333 
32033 1 15.4176 -14.1387 -16.4001 
32032 1 16.5597 -14.73 -17.6176 
79369 1 11.808 -9.8313 -17.414 
42222 1 16.0329 -9.99587 -17.3914 
32041 3 11.217 -14.8251 -15.5164 
42227 3 15.0497 -10.9691 -14.3176 
42226 3 16.4808 -10.4407 -14.5641 
31943 1 18.2405 -15.2725 -20.1877 
31944 3 19.6778 -14.759 -18.6262 
31945 3 20.4439 -15.3349 -17.359 
31952 1 21.4955 -14.8157 -15.6938 
42216 1 16.7551 -10.2489 -19.9508 
42223 1 17.7275 -9.4533 -17.089 
31946 1 18.8472 -14.0735 -18.2969 
31947 1 20.3518 -14.0734 -19.2385 
42220 3 17.0906 -10.3354 -17.1893 
42221 3 17.2865 -11.0238 -15.7478 
42225 1 16.9409 -12.0672 -15.8381 
42213 1 17.7707 -12.6994 -20.406 
42209 3 18.3235 -11.7349 -20.5102 
42219 1 17.001 -12.2127 -18.2305 
42214 3 17.6926 -10.6223 -19.603 
42212 1 19.3298 -11.9809 -20.0475 
42217 1 18.3028 -9.74509 -19.6359 
42215 3 17.6284 -11.2644 -18.2461 
42218 1 18.6883 -11.6764 -17.98 
31953 1 20.4231 -13.5377 -16.258 
31950 3 21.1928 -14.282 -16.5312 
32026 1 17.9166 -15.1586 -15.5884 
42224 1 18.3958 -11.1653 -15.5062 
31955 1 22.0919 -13.1505 -18.2477 
236 3 22.2271 -9.42191 -18.3101 
239 1 21.9688 -10.5098 -18.1974 
233 1 21.3509 -9.77221 -15.4234 
32027 1 16.711 -14.9053 -14.3788 
246 1 21.3778 -9.49967 -20.965 
31951 3 22.3944 -13.5704 -17.2419 
31954 1 22.7154 -12.784 -16.6235 
44664 1 -18.6303 -9.15171 -18.5062 
44668 3 -21.0771 -8.89813 -19.7098 
47394 1 -17.4306 -4.16123 -19.0283 
47385 1 -21.623 -4.2166 -20.3551 
44666 1 -20.9668 -8.72346 -17.5765 
43835 1 -18.3711 -8.97743 -15.5769 
43832 3 -18.6434 -8.59015 -14.6094 
43841 1 -19.2461 -6.84318 -16.7515 
43838 3 -19.5225 -6.53153 -15.7579 
43833 3 -18.6357 -7.06493 -14.6428 
43842 1 -18.7478 -4.55252 -15.9147 
43839 3 -19.6812 -5.01602 -15.6833 
47393 3 -16.9954 -6.18535 -18.7083 
43836 1 -17.648 -6.65525 -14.8925 
47396 1 -17.494 -7.12763 -18.8698 
47387 3 -19.1066 -5.11286 -19.8561 
47390 1 -19.2967 -6.09965 -20.4679 
47397 1 -17.0958 -5.9589 -17.6381 
47391 1 -19.6843 -5.24076 -18.9818 
47392 3 -17.6224 -5.10487 -19.5818 
43840 1 -20.4962 -7.0134 -15.6858 
43834 1 -19.6556 -8.92616 -14.3515 
47386 3 -19.4804 -3.88138 -20.6777 
47381 3 -20.9077 -4.05536 -21.1717 
47395 1 -16.9368 -5.09109 -20.4861 
43847 1 -20.8392 -3.39373 -16.6445 
43844 3 -21.0213 -4.42591 -16.3509 
44671 1 -20.7544 -7.84574 -19.7509 
43846 1 -21.1617 -4.90012 -17.3543 
47407 1 -16.2011 -8.8246 -17.1422 
43848 1 -22.0587 -4.07001 -14.5998 
43843 1 -19.858 -4.81452 -14.6109 
47404 3 -15.3012 -8.90439 -17.7462 
47401 1 -15.4995 -7.06629 -20.0973 
47398 3 -15.5361 -6.60107 -19.1021 
47400 1 -15.0309 -5.61942 -19.1329 
47461 1 -10.5634 -4.68906 -19.9639 
47399 3 -14.7653 -7.41822 -17.9537 
47403 1 -13.6852 -7.4714 -18.1352 
47402 1 -14.8393 -6.81128 -17.0025 
47413 1 -13.9743 -8.40475 -15.4634 
47453 3 -10.3784 -6.79341 -19.9145 
45773 1 -11.8722 -5.02281 -17.1647 
45768 3 -13.2884 -4.32036 -15.6312 
45770 1 -13.589 -5.42591 -15.4978 
45783 1 -9.96167 -4.91688 -16.3732 
45769 3 -12.5423 -4.19488 -16.9963 
47456 1 -11.1535 -6.85829 -19.1044 
45771 1 -12.6491 -4.19506 -14.7644 
47449 1 -9.96477 -8.78889 -17.7394 
45780 3 -9.49065 -3.88544 -16.3632 
47458 3 -10.7691 -5.57779 -20.7223 
47448 1 -9.50098 -7.43475 -16.8129 
45767 1 -15.2923 -3.69214 -16.2251 
45772 1 -13.3391 -4.26854 -17.8288 
47462 1 -12.8746 -5.86004 -20.4531 
45763 3 -14.5265 -3.44311 -15.5012 
47457 1 -10.5539 -7.73896 -20.5748 
47467 1 -12.5069 -3.37325 -21.1228 
47435 3 -6.34256 -9.23686 -14.6708 
47439 1 -5.38058 -8.80528 -14.3358 
45782 1 -9.14127 -3.7216 -17.357 
47452 3 -8.97236 -6.69758 -19.4376 
47450 1 -8.38953 -8.79626 -19.4225 
47455 1 -8.73628 -5.84711 -18.7713 
47446 3 -9.06117 -8.23047 -17.4035 
47441 3 -8.18019 -9.10306 -16.469 
45781 3 -8.35743 -3.76774 -15.3152 
47442 1 -6.30112 -8.14065 -16.5492 
47451 1 -7.24515 -7.68591 -18.6489 
47454 1 -8.39555 -6.47034 -20.3698 
47447 3 -8.35459 -7.92612 -18.7669 
41447 1 -5.1744 -8.02698 -18.7313 
41444 3 -4.26073 -8.35044 -19.3069 
95454 1 -4.49978 -5.27801 -17.5085 
95448 1 -5.99361 -4.57661 -19.6244 
95451 3 -5.19539 -4.55472 -17.0436 
47440 3 -7.01059 -8.39558 -15.7725 
95456 3 -4.4108 -4.27158 -15.7822 
95459 1 -3.44249 -3.85115 -16.0617 
47443 1 -7.38708 -7.46905 -15.4905 
95450 3 -5.36473 -3.35083 -17.9453 
95445 3 -6.25185 -3.57381 -19.2334 
95457 3 -4.06778 -5.50298 -14.8915 
41443 1 -3.63934 -6.37414 -19.4821 
95455 1 -6.15546 -5.02154 -16.8473 
95460 1 -3.74531 -6.38363 -15.5357 
41446 1 -4.62795 -8.31804 -20.2886 
95449 1 -7.29697 -3.63968 -18.9174 
41439 3 -3.14033 -7.30817 -19.1867 
45785 1 -7.65941 -4.55487 -15.5085 
95458 1 -4.97277 -3.56005 -15.187 
41440 1 -3.21985 -7.41987 -17.1208 
95461 1 -4.98251 -5.91692 -14.4845 
41438 3 -2.45652 -7.18582 -17.8215 
41436 1 -2.34307 -5.0338 -17.6536 
41441 1 -1.76117 -8.07025 -17.7964 
41433 3 -1.6942 -5.87695 -17.6142 
43053 1 0.874871 -8.54683 -15.6609 
41427 3 0.494751 -6.69875 -18.7368 
41430 1 0.133241 -7.70445 -18.6974 
41426 3 1.7563 -6.64397 -17.8655 
41424 1 2.08974 -8.55768 -18.5861 
41429 1 1.6095 -6.81125 -16.7965 
41428 1 2.17667 -5.60849 -18.0766 
41437 1 -1.37247 -5.77596 -16.5669 
41432 3 -0.49802 -5.64105 -18.5786 
43050 3 0.0804331 -8.6208 -14.9402 
43052 1 -0.682391 -7.88636 -15.3013 
41435 1 0.0164683 -4.70445 -18.4116 
3825 1 1.27665 -4.49587 -15.7227 
3821 3 1.32909 -3.93151 -14.792 
41421 3 2.75308 -7.69661 -18.3231 
41442 1 -2.30834 -7.41448 -19.942 
3824 1 0.339981 -4.16063 -14.3716 
41425 1 3.27006 -7.34391 -19.2461 
41434 1 -0.958196 -5.49132 -19.6068 
3823 1 3.41195 -4.06802 -14.4277 
3876 1 1.97679 -3.91024 -19.8133 
41431 1 0.816837 -6.62262 -19.8633 
41422 1 3.30309 -8.56984 -16.5462 
41423 1 4.58877 -8.81808 -17.7083 
79353 3 8.64319 -5.89689 -19.1167 
41420 3 3.88781 -8.08611 -17.3266 
41419 1 3.96782 -6.08153 -16.3619 
41415 3 4.64987 -6.81334 -16.8511 
41418 1 5.22106 -6.19936 -17.6236 
41414 3 5.54484 -7.17763 -15.6511 
79361 1 8.1052 -7.5278 -17.6348 
79358 3 8.97794 -7.12971 -18.1681 
41417 1 6.35689 -7.83708 -15.8744 
41412 1 6.62387 -5.28195 -15.9215 
41409 3 6.11499 -5.86629 -15.1412 
41413 1 5.28347 -5.16118 -14.8437 
41416 1 4.99347 -7.69006 -14.914 
79360 1 9.22933 -7.94374 -18.887 
3879 1 4.02536 -3.96028 -18.4795 
41411 1 7.7528 -6.85732 -14.2786 
3885 1 5.84079 -3.34567 -17.496 
3875 3 3.94966 -3.26946 -19.3117 
79354 1 6.43232 -5.78863 -19.3717 
79356 1 8.57758 -4.94928 -18.5264 
3884 1 6.63323 -3.12877 -19.0423 
79366 1 10.0312 -8.67639 -16.2233 
79357 1 9.51744 -5.75176 -19.7322 
3890 1 8.68385 -3.11597 -17.5823 
79352 3 7.36779 -6.03649 -19.9781 
3878 1 4.47029 -3.85444 -20.2448 
79362 1 9.74834 -6.09432 -16.5242 
79359 3 10.104 -6.75986 -17.2186 
79347 3 7.14454 -7.29144 -20.8457 
79351 1 7.1907 -8.11931 -20.144 
79355 1 7.49595 -5.15166 -20.615 
1902 3 12.0271 -3.66565 -20.8653 
79368 1 11.3172 -8.87487 -18.6984 
79374 1 13.0006 -8.67264 -20.0958 
79371 2 13.5564 -8.96865 -19.1923 
79376 1 14.6164 -8.90853 -19.3511 
79370 3 13.0575 -8.27995 -17.855 
79373 1 13.099 -7.23562 -18.0218 
79365 3 11.6601 -8.81099 -17.6423 
79364 3 10.8438 -7.99675 -16.5864 
79372 1 13.7433 -8.45406 -17.0168 
79363 1 10.9058 -6.19237 -17.7684 
79367 1 11.4948 -7.74683 -15.7864 
1906 1 12.6378 -5.19846 -19.4555 
1913 1 14.5696 -5.48717 -18.0661 
1916 1 12.537 -4.27446 -16.7541 
1914 3 13.6336 -4.23965 -16.5174 
1903 3 12.5812 -4.13469 -19.4537 
1907 1 11.7638 -3.96172 -18.6998 
1917 1 13.7489 -3.25065 -16.0653 
1909 3 14.4838 -4.41997 -17.8253 
1912 1 15.5356 -4.02338 -17.5746 
1908 3 13.8083 -3.50774 -18.8556 
1919 1 14.2833 -6.26599 -15.7162 
1915 3 14.0563 -5.25747 -15.4191 
1918 1 15.0245 -4.95399 -14.9708 
3897 1 10.5832 -3.24032 -15.7408 
1911 1 14.521 -3.14994 -19.5948 
42228 1 16.3082 -9.28528 -14.6271 
1922 1 12.0238 -5.58217 -14.681 
55041 1 15.3636 -6.82756 -20.7463 
55035 1 17.2529 -6.96973 -18.7364 
55031 3 17.696 -6.08379 -19.3341 
55034 1 17.0691 -5.27195 -19.0649 
55033 1 19.6341 -4.97966 -19.3607 
232 1 20.4324 -8.55588 -16.2516 
55029 1 19.1227 -6.66403 -16.8829 
55030 3 19.1208 -5.87924 -18.8917 
55032 1 19.7585 -6.67376 -19.2535 
55028 1 18.1647 -5.30734 -17.0844 
55025 3 19.1768 -5.6792 -17.3625 
55026 1 21.3061 -5.36416 -16.7928 
55024 2 20.3649 -4.82806 -16.7923 
55027 1 20.5918 -3.89531 -17.2473 
55023 1 20.3471 -4.70016 -15.6911 
238 1 21.3064 -8.93896 -18.847 
230 3 21.4254 -8.77824 -15.8854 
258 1 22.0468 -5.00329 -20.9604 
55036 3 17.4971 -6.28787 -20.8532 
1116 1 17.2091 -3.93415 -15.5587 
225 3 21.9054 -7.72212 -14.8269 
229 1 22.1235 -6.82674 -15.4244 
251 1 22.328 -7.12138 -20.8227 
235 1 22.9444 -7.71252 -17.105 
231 3 22.5369 -8.74785 -16.9537 
228 1 22.8667 -8.11234 -14.4075 
47388 1 -19.2947 -2.9185 -20.0951 
45758 1 -17.3793 -2.32364 -15.1203 
47643 1 -18.7444 -0.585086 -17.751 
47638 3 -16.7648 0.206805 -18.0546 
47639 3 -18.0251 0.0783279 -17.1582 
47640 1 -17.0795 0.410318 -19.0891 
47646 1 -19.704 1.27478 -16.5261 
47644 3 -18.6376 1.41942 -16.9761 
47642 1 -17.7971 -0.364737 -16.2176 
45752 1 -19.649 -1.48204 -15.2178 
47647 1 -18.7347 1.9084 -17.9339 
47637 1 -16.7197 -1.97259 -18.1826 
47641 1 -16.1009 1.04446 -17.7906 
47633 3 -15.9658 -1.08429 -18.163 
47649 1 -17.7531 1.74544 -14.9351 
47645 3 -17.8619 2.31008 -15.9372 
47655 1 -20.407 3.02118 -15.1938 
47648 1 -16.8451 2.47631 -16.3742 
47599 1 -21.1546 2.541 -18.8876 
45744 3 -21.8085 -0.0513679 -14.4905 
45746 1 -21.501 0.137625 -15.5491 
47635 1 -15.568 -1.2501 -20.3188 
47636 1 -15.4165 -1.26098 -17.1931 
47632 3 -14.9794 -1.17071 -19.3454 
47634 1 -14.3718 -2.13074 -19.3894 
45778 1 -10.9837 -2.89356 -15.1686 
45777 1 -11.2497 -3.01596 -18.1783 
45774 3 -11.6711 -2.91657 -17.2311 
45775 3 -10.5685 -2.77745 -16.178 
45776 1 -12.2533 -1.97088 -17.269 
45766 1 -14.2532 -2.34743 -15.6343 
47630 1 -14.4094 0.820968 -18.9874 
47627 3 -13.9442 -0.0529193 -19.413 
47631 1 -13.1663 -0.16623 -18.6349 
7472 1 -12.1714 2.04408 -16.6066 
7470 3 -12.8458 2.46 -15.7456 
45779 1 -10.0953 -1.81822 -16.2394 
4742 1 -10.2985 1.93113 -19.9667 
7473 1 -12.1217 2.88617 -15.0815 
7469 1 -14.142 0.679058 -15.8315 
7465 3 -13.7171 1.32632 -15.0164 
7467 1 -11.9247 0.111344 -14.5594 
7475 1 -14.5762 3.0735 -16.8602 
4737 1 -9.87964 2.22426 -17.4592 
4730 1 -9.57037 1.45148 -14.6771 
4740 3 -9.20236 1.66702 -20.1343 
4743 1 -9.23466 0.90488 -20.9529 
47624 1 -12.5563 2.1079 -20.3242 
4738 1 -9.29587 0.0426806 -18.7074 
47621 3 -13.1617 1.72141 -21.162 
7468 1 -14.6405 1.7243 -14.5962 
47628 1 -12.4162 -0.316923 -20.9775 
47626 3 -13.3439 0.215597 -20.8294 
47623 1 -15.0724 2.32631 -20.4219 
95443 1 -8.0869 -2.24194 -20.4997 
95453 1 -4.3653 -3.00605 -18.2744 
95452 1 -5.77686 -2.55813 -17.3498 
95444 3 -6.0417 -2.36176 -20.2319 
45784 1 -7.81743 -2.86064 -15.6492 
4734 3 -8.91143 1.81014 -17.59 
4732 1 -8.4144 0.00383643 -16.4333 
4735 3 -8.69031 1.00943 -18.827 
4739 1 -7.66439 0.656736 -19.0025 
4729 3 -8.13297 1.09131 -16.4188 
3843 1 -4.6813 0.819249 -16.2388 
4741 3 -8.51504 2.98968 -20.5901 
4736 1 -8.20556 2.6877 -17.8345 
4733 1 -7.06953 1.22441 -16.6173 
4728 3 -8.52637 1.65006 -15.0036 
3845 3 -4.37866 2.20781 -18.5979 
3849 1 -5.43717 2.09232 -18.4155 
95446 1 -6.14334 -1.46073 -19.6963 
3839 3 -3.61592 0.787394 -16.619 
3846 1 -3.87936 0.0674712 -18.7469 
3844 3 -3.60385 0.969556 -18.1651 
3850 3 -4.12358 2.56372 -20.0862 
3841 1 -3.5785 -1.3171 -16.7356 
3853 1 -4.73937 2.02701 -20.783 
95447 1 -5.04829 -2.34582 -20.665 
3842 1 -3.10517 1.5936 -16.2185 
3838 3 -3.03713 -0.5707 -16.1563 
3848 1 -3.99379 3.11026 -18.0548 
4723 3 -8.19582 3.1695 -14.8807 
4744 1 -7.47705 2.73834 -20.9267 
4731 1 -7.92452 1.07863 -14.3116 
3840 1 -3.28968 -0.788433 -15.0954 
95439 3 -7.25089 -2.40016 -21.1849 
3859 1 -2.71678 0.371433 -20.6321 
3874 3 2.50335 -2.93077 -19.5957 
3851 3 -2.6039 2.47835 -20.5198 
3847 1 -2.47689 1.1333 -18.3055 
3828 1 2.60397 -2.46535 -15.6813 
3877 1 1.96023 -2.52707 -18.7395 
3835 1 -1.54563 -2.68167 -15.9477 
3871 1 0.298153 -1.47338 -20.2792 
3826 3 1.55884 -2.48349 -15.2252 
3830 1 0.499836 -2.48222 -17.25 
3831 1 0.887365 -0.913675 -16.6675 
3836 1 -1.48289 -0.551949 -17.5325 
3833 3 -1.53983 -0.598438 -16.4911 
3827 3 0.560092 -1.93511 -16.3292 
3837 1 -1.03914 0.293389 -16.074 
3832 3 -0.900685 -1.8199 -15.8022 
7414 1 0.162267 2.40818 -18.407 
3854 1 -1.94484 2.58488 -19.6527 
3834 1 -0.933146 -1.53587 -14.7286 
3829 1 1.6686 -1.82821 -14.4033 
7407 1 1.84254 1.70607 -20.0146 
7404 3 2.88617 1.77961 -19.6239 
7406 1 3.01038 0.902889 -19.0079 
3860 1 -0.438065 0.598827 -20.4633 
45915 1 3.60991 0.919013 -15.977 
7418 1 -0.203281 2.87386 -16.1708 
7413 1 2.10035 2.29865 -16.9157 
7405 3 3.00554 2.99029 -18.7783 
7410 3 2.07368 3.16102 -17.631 
7430 1 -1.56786 2.73081 -14.267 
45914 1 2.75103 0.883725 -14.3915 
45912 3 3.73518 1.03991 -14.9316 
3872 1 2.83682 -1.03 -20.663 
3869 3 2.38049 -2.05655 -20.9008 
3891 1 7.75214 -2.90795 -16.1444 
3888 1 6.58324 -0.965115 -16.7867 
3882 1 4.28821 -1.37009 -18.2844 
3880 3 4.84888 -2.06752 -18.8482 
3881 3 6.15375 -2.61237 -18.2623 
3889 1 7.49084 -0.738166 -18.3208 
3883 1 5.07659 -1.40464 -19.7124 
3886 3 7.08235 -1.5246 -17.5991 
3887 3 8.23904 -2.30834 -16.9281 
7401 1 5.58674 0.928447 -19.7161 
4983 1 7.9922 2.19898 -15.3321 
7399 3 3.82674 1.69066 -20.8427 
7398 3 5.36618 1.64462 -20.5261 
3894 1 8.8752 -0.930297 -15.4048 
3892 3 9.27409 -1.44096 -16.2741 
4980 3 9.02532 2.67228 -15.4438 
3895 1 9.59185 -0.573013 -16.9552 
4979 1 9.14351 2.91393 -17.5586 
4982 1 9.78041 1.96089 -15.6936 
7400 1 5.67983 2.65019 -20.15 
45910 1 4.38781 -1.003 -14.9134 
45911 1 5.60188 0.0831885 -15.0795 
45916 1 4.65647 3.02796 -15.3226 
7409 1 3.99368 2.92124 -18.3901 
45913 3 4.31737 2.3984 -14.4811 
45907 3 4.68811 -0.0743974 -14.4802 
3893 3 10.6258 -2.17185 -15.984 
1910 1 13.6316 -2.53433 -18.3098 
3896 1 11.3605 -2.19039 -16.893 
1900 1 10.4987 -2.35553 -20.0393 
3902 1 11.553 0.392386 -16.1342 
1901 1 12.048 -1.65495 -19.9772 
1897 3 11.3929 -2.23624 -20.6352 
1125 1 15.4224 -0.790382 -18.2395 
3903 1 13.1028 -0.502777 -16.125 
3899 3 12.2242 -0.176182 -15.4643 
1311 1 13.0196 1.39319 -19.8284 
1314 1 14.8006 1.58148 -18.4665 
1307 3 13.308 2.44926 -19.8175 
3908 1 12.9221 2.61026 -15.7928 
3909 1 14.4685 1.54379 -15.7932 
3898 3 11.4857 -1.39425 -14.8354 
1317 1 16.0293 2.75905 -20.218 
1130 1 15.8621 -2.2462 -20.8434 
3900 1 12.287 -2.07781 -14.4475 
3905 3 13.6235 1.9886 -15.0982 
3904 3 12.9092 0.751739 -14.4054 
1119 1 15.5711 -1.99126 -15.806 
1129 1 16.4861 0.112972 -20.2684 
1121 3 16.5106 -0.679263 -18.2764 
1124 1 16.5981 0.350459 -17.8646 
1310 1 13.8757 2.47115 -20.8457 
1115 3 16.6701 -1.79326 -15.9151 
1312 3 14.3784 2.55399 -18.7032 
1315 1 13.957 2.93685 -17.7581 
1305 1 10.9602 2.29444 -21.0145 
264 1 21.9837 -2.97091 -19.8755 
261 3 21.3017 -2.58278 -20.6816 
265 1 20.2314 -2.72055 -20.2685 
1118 1 16.8568 -0.824216 -15.4233 
1320 1 16.9824 2.75506 -17.8034 
1131 1 17.3305 -2.89986 -20.086 
1122 1 17.1323 -2.74438 -17.7005 
1127 3 16.9174 -1.96179 -20.5823 
1126 3 17.0431 -0.694107 -19.7559 
1120 3 17.1315 -1.73994 -17.3424 
1128 1 18.097 -0.436172 -19.8544 
1123 1 18.1991 -1.46035 -17.2981 
270 1 20.0952 0.0724614 -19.4821 
272 3 21.3268 -1.06671 -18.1936 
273 3 21.1714 -0.22457 -16.8998 
275 1 20.5197 -1.83129 -18.2559 
267 3 21.1278 -0.283105 -19.4535 
276 1 20.2624 0.379842 -16.9422 
1328 1 20.0569 2.78873 -17.489 
1329 1 18.9501 2.91987 -16.2555 
266 3 21.6517 -1.09525 -20.6673 
271 1 21.6704 0.656616 -19.4867 
277 1 21.9783 0.485279 -16.8052 
1335 1 22.2111 3.18052 -17.0404 
1117 1 18.5238 -2.9309 -15.4688 
278 3 21.2361 -1.08692 -15.5962 
1114 3 17.4657 -2.93506 -15.1802 
274 1 22.3477 -1.45601 -18.0688 
282 1 21.632 0.553549 -14.2591 
281 1 20.412 -1.86733 -15.606 
287 1 19.2657 0.982803 -14.9146 
279 3 20.9545 -0.309683 -14.3401 
286 1 18.8027 -0.582773 -14.2543 
280 1 22.1927 -1.60092 -15.631 
269 1 22.7903 -0.960524 -20.6263 
50788 1 22.8783 2.86618 -20.5966 
17270 1 -21.8259 8.45189 -18.0721 
47610 1 -16.8344 7.00165 -20.4941 
47608 3 -17.397 6.0389 -20.6241 
47651 3 -19.6154 3.58072 -14.6616 
47596 3 -21.6391 3.51345 -19.0318 
47605 1 -18.9552 3.89115 -19.6992 
47650 3 -18.4391 3.71769 -15.6632 
47603 3 -18.4913 5.84242 -19.4782 
47652 1 -18.7518 4.22838 -16.5847 
47606 1 -17.955 5.60845 -18.5815 
47600 1 -20.3895 4.77638 -17.721 
47597 3 -20.7129 4.729 -18.7315 
47658 1 -20.7678 5.48029 -14.8212 
47653 1 -17.5979 4.3906 -15.2784 
47602 3 -19.5598 4.81246 -19.7087 
16463 1 -16.5191 8.63309 -16.7868 
16460 3 -15.8132 8.7472 -15.9084 
47601 1 -21.3211 5.63387 -18.9061 
17271 1 -20.6444 8.32282 -16.8348 
16457 1 -18.4036 9.47648 -15.7436 
47613 1 -15.7403 4.89172 -19.6142 
16455 3 -16.7395 8.91533 -14.6148 
16458 1 -17.2985 7.92793 -14.4747 
47609 3 -16.3623 4.87204 -20.5384 
47607 1 -18.9327 6.84979 -19.2646 
47604 1 -20.0721 4.89057 -20.6712 
47612 1 -16.8403 3.88414 -20.4921 
17267 3 -21.6946 8.50538 -16.9295 
47598 1 -21.9242 3.35265 -20.1992 
7479 1 -12.9886 3.87497 -18.4215 
7471 3 -13.7278 3.54877 -16.372 
47618 1 -13.5531 4.49716 -20.4656 
7476 3 -13.1995 4.48371 -17.5039 
7474 1 -14.0298 4.18271 -15.5519 
7478 1 -14.055 5.11335 -17.7937 
7485 1 -11.3441 5.64717 -19.2409 
16464 1 -14.165 7.29254 -16.5338 
7484 1 -12.0842 7.03297 -18.5247 
7477 3 -11.9937 5.27611 -17.1149 
7482 3 -11.4031 6.21827 -18.2557 
7481 1 -12.1716 5.88532 -16.2014 
7480 1 -11.1365 4.60582 -16.8538 
16475 1 -11.1965 8.15446 -14.9418 
16461 3 -14.8728 7.51901 -15.7242 
16465 1 -15.5097 6.61288 -15.6614 
7483 3 -10.022 6.82426 -18.0889 