ITEM: TIMESTEP
104000
ITEM: NUMBER OF ATOMS
97821
ITEM: BOX BOUNDS pp pp pp
-22.0999 112.671
-21.8397 65.9581
-21.1856 62.042
ITEM: ATOMS id type x y z 
44637 1 -20.0072 -19.075 -18.2473 
44633 3 -19.8231 -19.6336 -19.1657 
44636 1 -18.8152 -19.9935 -18.982 
41910 1 -18.8664 -20.0678 -14.6887 
44643 1 -18.5875 -16.9956 -19.6504 
44638 3 -19.8119 -18.653 -20.3953 
44642 1 -17.6024 -18.3228 -19.9851 
44653 1 -16.7127 -15.6895 -19.7208 
44639 3 -18.4423 -17.7761 -20.3939 
92464 1 -16.0486 -20.4425 -18.0581 
44632 3 -20.8368 -20.8622 -19.2247 
43906 1 -16.918 -17.3044 -15.3658 
43904 3 -16.16 -16.6421 -15.8189 
43903 1 -17.5801 -15.6429 -17.1519 
44640 1 -20.6855 -17.9847 -20.5723 
44634 1 -21.9049 -20.5956 -19.4456 
44627 3 -20.6342 -21.751 -17.9784 
44635 1 -20.4467 -21.4633 -20.1353 
41913 1 -21.0912 -21.53 -14.6305 
44748 1 -21.9424 -15.9995 -14.3211 
92461 1 -16.8341 -21.4579 -15.934 
95083 1 -21.897 -16.2082 -20.096 
92462 3 -16.1051 -21.5669 -17.9646 
44631 1 -20.9092 -21.0927 -17.0942 
92465 1 -17.0882 -21.8131 -18.3864 
43907 1 -15.5747 -16.2579 -14.8907 
41120 3 -12.585 -20.3554 -15.2481 
41123 1 -12.309 -19.3704 -15.4396 
41122 1 -13.6958 -20.371 -15.1315 
43905 3 -15.12 -17.3399 -16.8171 
43915 1 -12.3869 -17.6881 -17.7696 
43909 1 -14.6702 -18.155 -16.2724 
41116 1 -10.4896 -19.9168 -17.0563 
43908 1 -15.6145 -17.7731 -17.6915 
41119 1 -12.8592 -20.7452 -17.3899 
41115 3 -12.2109 -21.1213 -16.52 
43912 1 -13.5094 -15.91 -16.3012 
43910 3 -13.9798 -16.3151 -17.2336 
43911 3 -12.9356 -16.9013 -18.2388 
92471 1 -14.8066 -20.8759 -20.2831 
43914 1 -13.4863 -17.4133 -19.0382 
41114 3 -10.7123 -21.0099 -16.9519 
43921 1 -10.2861 -16.0223 -17.5139 
41124 1 -10.9455 -21.4442 -14.3463 
43916 3 -12.0255 -15.7771 -18.8286 
43919 1 -11.5016 -16.2437 -19.7002 
41117 1 -10.0514 -21.2898 -16.1165 
92460 1 -15.1436 -21.7844 -16.0209 
41131 1 -10.5926 -18.4673 -14.4725 
41113 1 -11.2251 -21.7958 -18.899 
41110 1 -8.54462 -20.839 -18.7876 
41472 1 -8.7014 -16.0635 -19.4802 
41147 1 -7.59338 -20.4976 -15.6453 
41143 1 -6.61019 -18.2487 -16.0572 
41146 1 -6.46554 -20.3461 -16.9619 
41144 3 -6.52333 -20.2667 -15.852 
41149 1 -4.76914 -21.3861 -15.5357 
41139 3 -6.13555 -18.8263 -15.3192 
42122 1 -4.45904 -19.192 -18.7642 
41142 1 -5.01316 -18.8061 -15.4435 
41465 1 -4.88966 -15.9739 -16.9257 
42120 1 -4.76284 -20.615 -20.8523 
41467 1 -7.19832 -16.3827 -17.4379 
41137 1 -8.39253 -17.5137 -14.5248 
41473 1 -8.23443 -17.6511 -18.9071 
41463 3 -6.73474 -15.6005 -17.9941 
41468 3 -6.54185 -16.2733 -19.4113 
42119 3 -3.63889 -19.6061 -19.3832 
42127 1 -4.02616 -21.4023 -18.3215 
41469 3 -7.94259 -16.889 -19.6244 
41470 1 -5.78694 -17.1479 -19.5657 
42118 3 -4.06687 -19.7395 -20.8355 
42123 1 -2.87476 -18.8844 -19.2381 
42124 3 -3.11005 -20.8754 -18.7281 
42121 1 -4.75216 -18.9209 -21.0696 
41145 3 -5.82353 -21.4817 -15.2719 
41476 1 -9.09852 -18.0657 -20.9383 
43937 1 -7.29505 -15.5761 -14.3247 
41474 3 -8.1744 -17.4517 -21.0136 
42128 1 -2.41685 -19.8093 -17.0176 
43030 1 -2.29828 -15.8625 -14.8476 
43028 1 -0.99722 -17.832 -14.5912 
42126 1 -2.76673 -21.5507 -19.4303 
42125 3 -2.0152 -20.5747 -17.6787 
42129 1 -1.04888 -20.1966 -18.1158 
42135 1 0.0374847 -20.8655 -15.7885 
7288 1 0.0508532 -17.429 -17.899 
7282 1 2.90329 -19.2682 -16.3137 
7279 3 2.3829 -19.077 -17.2194 
7289 1 1.02293 -17.4214 -19.3664 
7285 3 0.989128 -17.0196 -18.2996 
7284 3 2.26522 -17.5142 -17.4957 
7283 1 1.3326 -19.4263 -16.9792 
7287 1 2.23384 -17.1052 -16.3988 
7273 3 3.11118 -21.5859 -17.8367 
7278 3 2.95656 -20.0496 -18.3643 
7280 1 2.32042 -20.0613 -19.2225 
43027 3 -1.23899 -15.8166 -14.6318 
43031 1 -0.766428 -15.9463 -15.6795 
7286 1 3.23457 -17.1202 -17.851 
42134 1 -1.47001 -21.0759 -14.8505 
42131 3 -0.751793 -21.5602 -15.596 
31843 3 9.28355 -21.5793 -16.9815 
7281 1 3.85989 -19.6764 -18.8345 
31847 1 8.82661 -20.8447 -16.3028 
31849 3 8.46706 -20.0133 -18.8468 
31852 1 8.23712 -19.2304 -18.18 
42165 1 5.53308 -18.5719 -16.3399 
42161 3 5.94802 -18.1687 -15.3979 
42168 1 8.05609 -17.6243 -15.9371 
42166 3 7.09988 -17.1493 -15.7082 
31853 1 7.54042 -20.6135 -19.1055 
42171 1 6.38655 -16.7328 -17.7138 
31848 3 9.69749 -20.804 -18.3292 
42169 1 7.32536 -16.561 -14.7508 
42162 1 7.47368 -19.6189 -14.7285 
31859 1 9.23804 -17.3982 -19.1203 
42164 1 5.07652 -17.6184 -14.9627 
31850 1 9.9769 -21.4404 -19.1348 
42167 3 6.61425 -16.1814 -16.8088 
42159 1 4.79014 -20.5422 -15.1927 
31855 3 9.67193 -17.974 -19.8985 
31854 3 8.75936 -19.1656 -20.1363 
42170 1 5.59611 -15.7839 -16.4881 
31860 3 9.90814 -17.074 -21.1437 
42160 3 6.47005 -19.23 -14.3598 
31856 1 7.81683 -18.7229 -20.5222 
31857 1 9.08496 -19.7312 -21.0162 
7276 1 3.73032 -21.5617 -16.911 
31851 1 10.5903 -20.222 -18.2356 
31858 1 10.7105 -18.1604 -19.5681 
31007 3 13.6084 -20.3671 -16.1402 
31010 1 13.7563 -19.2775 -16.1191 
31006 3 12.9198 -20.9125 -14.9884 
78809 1 16.3363 -18.3181 -19.7122 
31005 1 11.0818 -20.2094 -15.4427 
32038 1 13.1368 -16.3897 -17.1368 
31011 1 13.0096 -20.5515 -17.0326 
31001 3 11.6944 -20.0731 -14.544 
31004 1 12.0024 -19.016 -14.5104 
32030 1 14.844 -16.213 -16.1538 
31012 3 15.0159 -21.0261 -16.3933 
78805 1 16.3999 -20.5367 -20.5355 
32039 1 12.1276 -16.1268 -18.5965 
32028 3 15.6833 -15.6242 -16.6115 
32031 1 16.2431 -16.2991 -17.2222 
32049 1 12.6149 -16.3087 -14.797 
32044 1 10.5613 -16.1152 -16.208 
31017 1 15.3334 -20.0499 -18.3189 
32035 3 12.757 -15.6073 -17.8238 
31013 3 15.8333 -20.1701 -17.3073 
31016 1 15.7242 -19.2295 -16.8221 
31015 1 15.615 -21.2223 -15.5281 
78802 1 14.1451 -19.3848 -20.1648 
78796 1 11.9472 -20.7298 -20.9799 
78800 3 14.4902 -19.7156 -21.1607 
31862 1 10.526 -16.1976 -20.7679 
31846 1 10.1174 -21.8389 -16.3625 
78806 3 16.6545 -18.4949 -20.73 
31021 1 17.8086 -19.8118 -18.118 
32025 1 17.2967 -17.1881 -15.5749 
31938 3 20.7838 -18.2599 -19.7724 
31940 1 21.8596 -18.2914 -19.4609 
31018 3 17.3427 -20.5577 -17.4082 
31941 1 20.4402 -19.3027 -20.0321 
31933 3 20.6091 -17.3822 -21.0299 
31939 3 20.1073 -17.6697 -18.4797 
31942 1 20.5135 -18.1294 -17.5188 
31943 1 18.9909 -17.8618 -18.5033 
28576 3 21.9131 -20.6006 -15.3541 
28578 1 21.3747 -19.6437 -15.2755 
32022 3 17.311 -16.322 -14.8454 
32020 1 19.4664 -15.7738 -15.0758 
31946 1 19.9027 -15.6817 -17.4481 
31944 3 20.3631 -16.0707 -18.3657 
28580 1 22.251 -20.4563 -17.5936 
31936 1 19.5771 -17.0998 -21.0973 
32019 1 19.5253 -18.1629 -14.4273 
32012 1 21.8581 -16.8787 -14.7091 
32017 3 18.7548 -16.0796 -14.3178 
31937 1 21.0221 -16.3463 -20.7596 
31020 1 17.8773 -20.3455 -16.4745 
31945 3 21.8946 -15.7536 -18.3398 
28579 1 21.2288 -21.4849 -15.4461 
31949 1 22.3184 -16.2019 -17.4604 
29150 1 18.0101 -21.5216 -14.4711 
31948 1 22.329 -16.1984 -19.2691 
78808 1 17.7693 -18.7083 -20.6859 
31027 1 19.527 -21.3882 -18.8326 
78810 1 17.21 -16.4184 -21.1756 
43900 1 -18.7044 -15.3959 -14.8417 
44664 1 -17.6296 -9.96078 -19.7228 
44661 1 -18.7034 -11.7889 -20.9407 
43899 3 -16.9743 -15.4439 -16.2834 
43898 3 -17.8236 -14.837 -15.1127 
43897 1 -18.3862 -13.2781 -16.6629 
43896 1 -17.1882 -12.798 -15.41 
44659 1 -16.7354 -13.2974 -19.1379 
43888 1 -21.1551 -11.6491 -16.3787 
43887 3 -20.6275 -13.3189 -15.0357 
43893 3 -18.1291 -13.3727 -15.5575 
44665 1 -17.7017 -10.9035 -18.2007 
44663 3 -19.6532 -9.94076 -18.8333 
44667 1 -20.3502 -10.5771 -18.1909 
44662 3 -18.2261 -10.713 -19.1613 
43886 3 -21.1866 -12.7685 -16.4499 
43889 1 -20.6276 -12.9365 -17.3859 
44657 3 -18.4183 -12.0164 -19.8704 
44660 1 -19.2079 -12.6275 -19.4109 
44668 3 -20.4011 -9.71386 -20.1392 
44656 3 -17.0918 -12.8389 -20.0358 
43890 1 -20.3309 -14.3878 -15.0641 
43902 1 -16.2422 -14.6809 -16.5445 
43830 1 -17.3626 -10.2638 -14.8491 
44669 3 -21.8294 -9.32091 -19.9009 
44658 1 -16.1748 -12.3791 -20.446 
44650 3 -16.5455 -15.2483 -20.7152 
44654 1 -18.5803 -14.2406 -20.7172 
44651 3 -17.4906 -14.0347 -20.9627 
43892 3 -19.2178 -12.6909 -14.6865 
43895 1 -19.2798 -11.6418 -14.9239 
44670 1 -20.4565 -10.6747 -20.6852 
43917 3 -10.9378 -15.1936 -17.898 
43920 1 -10.2784 -14.5612 -18.5142 
47406 1 -15.226 -9.49916 -19.7648 
43913 1 -14.5472 -15.5413 -17.7538 
93661 1 -10.3262 -11.1183 -19.6359 
43918 1 -12.7195 -15.0592 -19.2832 
43925 1 -12.4035 -13.8943 -16.892 
93657 1 -11.8875 -12.9726 -19.6269 
47409 1 -14.5888 -10.7131 -17.5689 
47408 1 -13.0583 -10.1369 -18.3141 
93654 1 -13.7294 -11.816 -20.5861 
93653 3 -11.6446 -12.537 -20.6457 
93658 3 -10.2692 -11.9438 -20.3225 
93660 1 -9.6706 -12.6835 -19.793 
47405 3 -14.0522 -9.77777 -17.8929 
47414 1 -12.2194 -10.6395 -15.9811 
47411 3 -13.0211 -10.0074 -15.5228 
47415 1 -13.7938 -10.6643 -15.1819 
43922 3 -11.4419 -14.3964 -16.6313 
43927 1 -10.4576 -12.5023 -16.8502 
43923 3 -10.4868 -13.3337 -16.0572 
43926 1 -11.0477 -12.8251 -15.2182 
93652 3 -12.7117 -11.4635 -20.9701 
43924 1 -11.5994 -15.1316 -15.836 
44652 1 -15.4874 -14.9526 -20.6972 
93655 1 -12.6362 -10.4244 -20.504 
41471 1 -6.26215 -15.5175 -20.1208 
41462 3 -5.44935 -15.0835 -17.2605 
41464 1 -5.64934 -14.6677 -16.1922 
43928 3 -9.14157 -13.8925 -15.6595 
43931 1 -8.94809 -14.9246 -16.0228 
43930 1 -8.26973 -13.2948 -15.9618 
41457 3 -4.62707 -14.0586 -18.0711 
41460 1 -3.60617 -14.1086 -17.5937 
41456 3 -5.14959 -12.5707 -18.0822 
41459 1 -5.18134 -12.3149 -17.0427 
41451 3 -4.15694 -11.6127 -18.7985 
41466 1 -7.44035 -14.7532 -18.1134 
41454 1 -3.16922 -11.9223 -18.4214 
41458 1 -6.15257 -12.5562 -18.5531 
41461 1 -4.3744 -14.4001 -19.0886 
41450 3 -4.3131 -10.107 -18.5017 
41453 1 -4.42481 -9.78792 -17.39 
47438 1 -5.69761 -10.1297 -15.1676 
93666 1 -7.63529 -12.1412 -20.5014 
41455 1 -4.12266 -11.9181 -19.8419 
47445 1 -8.40893 -9.84811 -16.5147 
93667 1 -7.81846 -10.4517 -20.3103 
47435 3 -6.22497 -9.42732 -14.4473 
41452 1 -5.31314 -9.7462 -18.9002 
41449 1 -2.94489 -9.36231 -20.1285 
93664 3 -7.93755 -11.2934 -21.1163 
41448 1 -2.29857 -9.54701 -18.4415 
43036 1 -1.49998 -13.2597 -15.8907 
43042 1 -1.38715 -11.0583 -16.34 
43037 1 0.155782 -13.4973 -15.714 
43043 1 0.395584 -11.0763 -16.1921 
43033 3 -0.743976 -13.3543 -15.1451 
43038 3 -0.550811 -11.9678 -14.5243 
7293 1 1.06649 -14.9764 -17.4048 
7290 3 1.05711 -15.4686 -18.4246 
7291 3 0.0997848 -14.8195 -19.4658 
7295 1 0.0951589 -15.3194 -20.4369 
7296 3 0.414105 -13.2975 -19.4853 
7299 1 -0.0773893 -12.9168 -18.5984 
7294 1 -0.958972 -14.7643 -19.0975 
7297 3 0.0973275 -12.4744 -20.7482 
7302 3 0.170405 -10.9256 -20.4874 
43039 3 -0.528955 -10.9661 -15.644 
7305 1 -0.484648 -10.5884 -19.6228 
7304 1 1.1893 -10.7562 -20.1212 
7298 1 1.50871 -13.1664 -19.2559 
7292 1 2.12143 -15.1736 -18.7025 
42260 1 2.48537 -13.3178 -14.7193 
43044 3 -0.57187 -9.49962 -15.0461 
43049 1 1.5748 -9.3759 -15.4846 
42174 1 8.56681 -15.3539 -17.088 
42172 3 7.54734 -15.0256 -17.1685 
42265 1 3.73438 -15.3567 -15.0969 
42259 1 4.09206 -11.2773 -14.7317 
42256 3 4.40043 -12.3127 -14.7577 
42258 1 4.5407 -12.4954 -15.7998 
42176 1 6.57414 -13.4328 -18.3176 
42180 1 9.07906 -14.659 -19.6627 
42178 3 8.51261 -13.7907 -19.2983 
42177 1 6.67899 -14.9229 -19.2757 
42173 3 7.23076 -14.3063 -18.5402 
42175 1 7.46178 -14.212 -16.2507 
42252 1 6.61372 -11.496 -15.7911 
42181 1 9.14978 -13.2481 -18.6361 
42182 1 7.47703 -12.2042 -20.0762 
42179 3 8.14486 -12.9525 -20.5234 
42247 1 9.19549 -10.0578 -14.6572 
42250 3 6.8341 -11.5326 -14.6293 
42253 1 6.67063 -10.4897 -14.2588 
42244 3 9.41014 -11.1697 -14.7789 
42246 1 9.46274 -11.2256 -15.952 
42186 1 9.93867 -11.6746 -20.5044 
41423 1 5.00422 -9.51808 -17.9459 
42255 1 6.1482 -13.5441 -14.348 
32036 1 14.4432 -15.3495 -19.3204 
79368 1 10.6649 -9.90284 -18.7844 
32045 1 10.4191 -14.4233 -15.6564 
32041 3 11.1447 -15.1964 -15.97 
32042 1 11.0522 -14.2638 -17.8678 
79375 1 13.5738 -11.0922 -18.103 
32037 1 13.5448 -13.8741 -18.9561 
32034 3 13.974 -14.7662 -18.5186 
32040 3 11.8427 -14.5937 -17.1791 
32029 3 15.0504 -14.4401 -17.3906 
32043 1 12.4968 -13.725 -16.857 
79374 1 13.137 -10.7865 -19.7375 
42231 1 15.0786 -10.7296 -16.0254 
42240 1 12.3888 -11.2205 -15.6408 
79371 2 13.5517 -10.3204 -18.8852 
79376 1 14.5793 -10.037 -19.0765 
32033 1 14.4681 -13.8208 -16.6419 
32032 1 15.8087 -13.7599 -17.8656 
32046 3 12.0814 -15.3573 -14.6749 
79369 1 11.4016 -9.9579 -17.2876 
42241 1 11.8766 -9.80677 -14.6209 
79365 3 11.301 -9.30387 -18.1422 
32027 1 16.0638 -14.5275 -14.8241 
42238 3 12.0669 -10.8847 -14.6556 
42227 3 15.6361 -10.6638 -14.977 
32048 1 12.7872 -14.5082 -14.7438 
42230 1 15.9272 -11.6436 -14.7173 
42205 1 15.762 -12.6133 -20.9916 
42222 1 16.7261 -10.114 -17.8474 
42216 1 17.1815 -10.7622 -19.9578 
32023 3 16.6805 -15.0909 -15.555 
31947 1 19.8978 -15.4707 -19.1363 
42226 3 16.9358 -9.75449 -15.0061 
42220 3 17.7935 -10.013 -17.5885 
42221 3 17.9945 -10.2688 -16.0221 
42225 1 18.068 -11.3516 -15.8442 
42213 1 18.1867 -13.0492 -20.1088 
42209 3 18.7009 -12.1707 -20.5734 
42219 1 18.3728 -12.03 -17.9894 
42214 3 18.2545 -10.9185 -19.8945 
42212 1 19.7499 -12.3637 -20.1989 
42217 1 18.7438 -10.0344 -20.3856 
42215 3 18.6556 -11.039 -18.4056 
42218 1 19.7527 -10.925 -18.3057 
31953 1 21.3632 -13.7599 -18.6117 
31950 3 22.2574 -14.3193 -18.2415 
32026 1 17.3507 -14.3546 -15.9287 
42224 1 18.955 -9.93376 -15.8 
239 1 21.485 -9.45461 -18.532 
31952 1 22.4264 -14.0142 -17.1419 
232 1 22.562 -9.44026 -16.0897 
47385 1 -20.6528 -3.76431 -20.0102 
44666 1 -19.6314 -9.05763 -18.1927 
43827 3 -17.5421 -9.2014 -14.5562 
43835 1 -18.2772 -8.84984 -16.6509 
43844 3 -21.157 -4.68146 -17.1786 
43832 3 -18.5553 -8.65351 -15.617 
47407 1 -15.7156 -8.59197 -18.3709 
43841 1 -18.7101 -6.73583 -17.4116 
43838 3 -19.483 -6.61883 -16.6895 
43833 3 -18.7532 -7.1499 -15.4225 
43842 1 -18.9931 -4.53774 -17.1719 
43839 3 -19.835 -5.09348 -16.6095 
47393 3 -16.2888 -6.6306 -20.0217 
43836 1 -17.8159 -6.51143 -15.2738 
47396 1 -16.8487 -7.58383 -20.0807 
44672 1 -21.869 -8.67627 -18.9985 
47387 3 -18.464 -5.52282 -20.6358 
43843 1 -19.7878 -4.6063 -15.619 
47390 1 -18.9201 -6.42951 -21.0098 
47397 1 -16.497 -6.28976 -18.9648 
47391 1 -18.4663 -5.46606 -19.5694 
47392 3 -16.9822 -5.62336 -20.936 
43840 1 -20.3055 -7.28874 -17.0312 
43846 1 -21.3549 -4.93406 -18.2287 
43847 1 -21.226 -3.59156 -17.0885 
43831 1 -16.5562 -8.77552 -14.6862 
43834 1 -19.4814 -9.1491 -15.486 
43837 1 -19.3288 -6.82598 -14.5242 
47394 1 -16.475 -4.63529 -20.8129 
44671 1 -19.8923 -8.93601 -20.7214 
47381 3 -20.5521 -4.1555 -21.0669 
43848 1 -22.0251 -5.38453 -15.3347 
47384 1 -20.9889 -5.20129 -21.0343 
47410 3 -13.6979 -9.01012 -16.4685 
47412 1 -14.689 -8.71876 -15.9854 
47398 3 -14.7868 -6.8436 -20.404 
47404 3 -14.7987 -8.93435 -18.9143 
47400 1 -14.2506 -5.92355 -20.6369 
47461 1 -9.82447 -4.7925 -20.3872 
47399 3 -13.9564 -7.73435 -19.4128 
47403 1 -12.9602 -7.96525 -19.8719 
47402 1 -13.6197 -7.07351 -18.5352 
47413 1 -13.1063 -8.08112 -16.662 
47453 3 -9.60228 -7.0097 -20.1828 
45773 1 -12.3411 -4.89205 -17.8648 
45768 3 -13.6296 -4.02473 -16.1945 
45770 1 -14.1224 -5.00458 -15.9422 
45783 1 -10.5285 -4.72795 -16.1902 
45769 3 -12.9573 -3.98427 -17.616 
45780 3 -10.0233 -3.74366 -16.278 
47456 1 -10.4729 -7.07918 -19.4612 
45771 1 -12.801 -4.0423 -15.4516 
47449 1 -10.0374 -8.04561 -17.2509 
47458 3 -9.82721 -5.69463 -20.9773 
47457 1 -9.59563 -7.90809 -20.8277 
45789 1 -9.45076 -5.55979 -14.4357 
47419 1 -11.423 -8.7697 -14.8138 
45781 3 -9.35486 -3.43007 -14.8992 
45772 1 -13.6894 -3.97055 -18.4158 
45777 1 -11.362 -3.32278 -18.8437 
47416 3 -12.3904 -9.24368 -14.391 
47444 1 -9.24761 -9.06279 -15.1711 
47441 3 -8.4544 -8.91676 -15.9236 
41445 3 -3.16297 -9.17281 -19.0485 
47442 1 -6.48072 -8.04429 -16.0977 
45782 1 -9.22008 -3.9699 -16.9991 
47451 1 -6.85865 -7.95423 -18.2035 
47450 1 -8.0701 -8.99855 -18.908 
47454 1 -7.39407 -6.66647 -20.0377 
47452 3 -8.27652 -6.84962 -19.3643 
47447 3 -7.98725 -7.99621 -18.3659 
47455 1 -8.30826 -5.98893 -18.7485 
47446 3 -8.94324 -7.8989 -16.9936 
47448 1 -8.88311 -6.81861 -16.6933 
41447 1 -3.74676 -7.7145 -17.7586 
41444 3 -3.48383 -7.70696 -18.7933 
95454 1 -5.98829 -5.06663 -18.1863 
95448 1 -6.98914 -4.16663 -20.4675 
95451 3 -5.58587 -4.03732 -17.9202 
47440 3 -7.13636 -8.40476 -15.288 
95456 3 -4.38027 -4.07418 -16.8479 
95459 1 -3.37837 -4.2056 -17.245 
47443 1 -7.38567 -7.42063 -14.7502 
45788 1 -7.97441 -5.10089 -15.3674 
95450 3 -5.31752 -3.30267 -19.2774 
95453 1 -4.56712 -3.91996 -19.7039 
95445 3 -6.59263 -3.13738 -20.1761 
95457 3 -4.59169 -5.10205 -15.7538 
41443 1 -2.95233 -5.71803 -18.9482 
95455 1 -6.45909 -3.56456 -17.4124 
95460 1 -4.68505 -6.14556 -16.0412 
95461 1 -5.58335 -4.86264 -15.3323 
45786 3 -8.61926 -4.76112 -14.5168 
41446 1 -4.50571 -7.57671 -19.3837 
95458 1 -4.32382 -3.03698 -16.3396 
95462 3 -3.54697 -5.06566 -14.606 
95465 1 -3.20578 -6.11179 -14.4492 
41439 3 -2.50365 -6.66318 -19.1344 
41440 1 -1.7989 -6.68536 -17.0877 
43048 1 0.559552 -8.35132 -16.5787 
43045 3 0.69157 -8.70404 -15.4784 
41438 3 -1.32181 -6.75612 -18.1318 
41436 1 -0.791236 -4.62528 -18.3655 
41441 1 -0.835305 -7.70552 -18.1448 
41433 3 -0.310157 -5.61651 -18.2977 
43053 1 1.78778 -6.78631 -15.2141 
41427 3 1.37251 -7.01949 -19.7247 
41430 1 0.792153 -7.96902 -19.6389 
41426 3 2.56018 -7.01701 -18.7252 
41424 1 2.63165 -9.14104 -18.901 
41429 1 2.34433 -6.74595 -17.7192 
41428 1 3.20199 -6.14531 -18.9327 
41437 1 0.34769 -5.69665 -17.4377 
41432 3 0.50159 -5.78762 -19.5473 
43050 3 1.01363 -7.4512 -14.7562 
43052 1 0.173424 -6.70524 -14.8305 
41435 1 1.09617 -4.81739 -19.5723 
3825 1 2.83658 -3.7688 -15.9962 
3821 3 2.68889 -3.40768 -14.9332 
41434 1 -0.157849 -5.58819 -20.4319 
41431 1 1.7541 -7.03987 -20.7299 
41421 3 3.40791 -8.34604 -18.8488 
95464 1 -2.65403 -4.48029 -14.8379 
41442 1 -2.15981 -6.70374 -20.1604 
3876 1 3.50279 -4.56765 -20.4101 
3877 1 3.43073 -3.88947 -18.8439 
43047 1 -1.41783 -8.90573 -15.4581 
3824 1 1.64749 -3.75111 -14.5593 
79353 3 8.42325 -6.36312 -20.6086 
41422 1 3.83153 -9.06137 -16.7991 
3874 3 3.97918 -3.82359 -19.7755 
41425 1 4.01071 -8.33978 -19.7858 
41420 3 4.38625 -8.70457 -17.6273 
41419 1 4.81435 -6.54722 -17.1059 
41415 3 5.39775 -7.51455 -17.2701 
41418 1 5.91374 -7.28616 -18.1738 
41414 3 6.31016 -7.84014 -16.1194 
79361 1 8.16823 -7.94859 -19.0667 
79358 3 8.97866 -7.52269 -19.7336 
41417 1 7.05988 -8.51245 -16.5708 
41412 1 7.29131 -5.99454 -16.226 
41409 3 6.87654 -6.60677 -15.4644 
41413 1 6.01587 -5.92577 -15.2223 
41416 1 5.83978 -8.42415 -15.3655 
79360 1 9.16928 -8.4014 -20.3299 
41408 3 7.96401 -6.83614 -14.3894 
3879 1 5.57231 -5.08494 -19.1304 
41411 1 8.91876 -6.7991 -14.8574 
3885 1 7.7529 -4.20373 -17.794 
3875 3 5.49847 -4.01787 -19.5611 
79366 1 9.89419 -7.91902 -16.9038 
3884 1 8.35689 -3.13741 -19.136 
3878 1 5.95683 -4.04897 -20.5242 
79362 1 9.96015 -5.96897 -18.5448 
3881 3 7.62884 -3.14418 -18.3291 
3891 1 9.38795 -3.63918 -16.3415 
79351 1 7.37246 -8.96754 -21.1004 
79354 1 6.33811 -6.65055 -20.5766 
3823 1 4.74689 -4.0676 -14.5696 
79356 1 8.31128 -5.52561 -19.9209 
79373 1 12.7198 -8.57729 -19.7281 
79370 3 12.7476 -9.05797 -18.6921 
79359 3 10.1787 -7.00343 -18.9082 
79364 3 10.6387 -7.89631 -17.7142 
79372 1 13.3008 -8.33851 -18.0951 
79363 1 11.022 -6.72469 -19.564 
79367 1 11.4793 -7.38883 -17.1968 
1906 1 13.5476 -5.96983 -19.3912 
1913 1 15.1505 -6.39848 -17.6311 
1916 1 13.2953 -5.95311 -16.3816 
1914 3 14.1826 -5.32537 -16.037 
1903 3 13.1654 -5.02176 -19.1186 
1919 1 15.3574 -6.82468 -14.99 
1907 1 12.3872 -5.20669 -18.3776 
1915 3 14.8966 -5.87592 -14.7664 
1917 1 13.6994 -4.33679 -15.8887 
1909 3 15.0605 -5.30269 -17.3398 
1912 1 16.1209 -4.98395 -17.0837 
1908 3 14.4339 -4.41541 -18.4188 
1911 1 15.1795 -4.29327 -19.1864 
1902 3 12.8283 -4.26084 -20.3864 
1910 1 14.222 -3.35147 -18.0791 
1904 1 13.7632 -4.17935 -20.9061 
1905 1 12.1247 -4.79016 -21.0412 
55035 1 15.6108 -6.52683 -20.3954 
3897 1 11.6467 -3.34965 -14.9583 
1900 1 11.1628 -3.0732 -19.761 
42234 1 14.1445 -9.22329 -14.403 
1918 1 15.7398 -5.28349 -14.4301 
42228 1 16.5487 -8.75192 -15.2884 
42223 1 17.9308 -8.98127 -17.8501 
55029 1 17.385 -6.00194 -19.0925 
55030 3 17.8356 -6.71169 -20.9121 
55032 1 17.935 -7.79275 -20.6053 
55028 1 17.8124 -4.70882 -20.1696 
55025 3 18.1365 -5.7122 -19.8572 
55026 1 19.3984 -6.74494 -18.5182 
55024 2 19.4309 -5.83883 -19.125 
55027 1 20.2711 -5.95625 -19.8291 
55023 1 19.7133 -4.98094 -18.4636 
223 1 20.3991 -5.85789 -14.5829 
224 3 21.8859 -7.48101 -14.3811 
229 1 21.2839 -7.38092 -16.5279 
1116 1 17.857 -3.59883 -14.9019 
225 3 22.1468 -7.40817 -15.881 
238 1 21.7418 -7.8756 -19.138 
236 3 22.304 -8.76532 -18.9633 
228 1 22.5734 -6.43562 -16.0125 
45759 1 -17.7344 -2.56573 -14.4021 
45758 1 -17.4709 -2.17321 -16.0207 
47643 1 -17.4801 0.11734 -18.173 
47638 3 -15.8248 0.873309 -19.1068 
47639 3 -16.7974 0.877904 -17.9224 
47640 1 -16.3599 0.716984 -20.055 
47646 1 -18.655 1.91881 -17.3256 
47644 3 -17.6303 2.15078 -17.7748 
47642 1 -16.361 0.513376 -17.0139 
45752 1 -19.6794 -1.44313 -16.4303 
47649 1 -16.1229 2.69702 -16.1453 
47647 1 -17.7963 2.5119 -18.7308 
45750 3 -19.7658 -1.04399 -15.4486 
45749 1 -20.9729 0.505637 -16.3687 
47645 3 -16.7815 3.1474 -16.9695 
45756 3 -17.4597 -1.74814 -15.0278 
45755 1 -17.9459 0.175514 -15.4961 
45753 1 -20.0691 -1.91863 -14.7818 
45751 3 -18.4413 -0.563905 -14.8919 
45745 3 -20.9709 -0.0347709 -15.4346 
45757 3 -15.9985 -1.34506 -14.4597 
47599 1 -20.7463 2.11221 -19.2875 
47598 1 -21.1854 2.76992 -20.8919 
47596 3 -21.1943 3.06222 -19.8296 
45748 1 -20.6648 0.761784 -14.7352 
45762 3 -15.0464 -2.4938 -14.6045 
47637 1 -15.5454 -1.32792 -19.0406 
45767 1 -15.3714 -2.96148 -16.7931 
45763 3 -14.6019 -2.8252 -16.0869 
45774 3 -11.8463 -2.93877 -17.9788 
45775 3 -10.8941 -2.6121 -16.8015 
45776 1 -12.3138 -1.95143 -18.298 
45778 1 -11.4271 -2.20625 -15.9824 
47633 3 -14.9408 -0.382494 -19.0477 
47641 1 -15.257 1.79404 -19.2483 
47636 1 -14.4316 -0.368514 -18.0287 
45766 1 -13.9887 -2.03587 -16.4536 
47630 1 -13.1602 1.55457 -19.8294 
47627 3 -12.8233 0.670829 -20.2633 
47631 1 -12.069 0.258094 -19.527 
7472 1 -11.5835 1.49889 -16.7242 
7470 3 -12.1549 2.13138 -16.0508 
45779 1 -10.1406 -1.73544 -17.0068 
4742 1 -9.46544 1.50235 -20.3572 
7473 1 -11.5247 2.68405 -15.3935 
7469 1 -13.6445 0.550963 -15.8321 
7465 3 -13.008 1.17922 -15.2504 
7467 1 -11.1764 -0.0895039 -15.1048 
7475 1 -13.7833 2.40218 -17.4513 
45761 1 -15.5706 -0.447296 -15.0066 
7471 3 -13.1095 3.01031 -16.8793 
7468 1 -13.6375 1.6323 -14.479 
7464 3 -12.0786 0.11718 -14.5248 
4737 1 -9.36285 1.06239 -17.6987 
47634 1 -13.5758 -1.37774 -20.4054 
7466 1 -12.7046 -0.834769 -14.383 
47632 3 -13.9947 -0.374961 -20.2564 
47635 1 -14.7146 -0.259829 -21.1378 
45785 1 -8.68563 -2.59414 -14.9742 
95452 1 -4.88404 -2.33274 -19.0351 
95449 1 -7.39605 -2.69041 -19.5341 
4730 1 -9.17886 1.03833 -15.3333 
4738 1 -8.46284 -0.584982 -19.2861 
4732 1 -8.33249 -0.794747 -16.7083 
4740 3 -8.354 1.30747 -20.4612 
4734 3 -8.30927 1.01328 -17.8353 
4735 3 -7.97068 0.42403 -19.2654 
4739 1 -6.87339 0.231393 -19.3218 
4729 3 -7.76023 0.243138 -16.6761 
3843 1 -3.93531 -0.524459 -16.9151 
4741 3 -7.45991 2.55199 -20.6902 
4736 1 -8.00191 2.09276 -17.7886 
4733 1 -6.74369 -0.00206612 -16.8953 
4728 3 -8.1101 0.942213 -15.3455 
3845 3 -3.4707 0.857256 -19.3108 
3849 1 -4.48409 0.413111 -19.3868 
3848 1 -3.55139 1.84592 -18.7193 
4726 1 -6.22489 2.05786 -14.7654 
4723 3 -7.31263 2.27034 -14.9917 
4727 1 -7.40125 2.94334 -15.8622 
4731 1 -7.97122 0.189304 -14.5967 
3850 3 -3.03899 1.3007 -20.7336 
3839 3 -3.00272 -0.021624 -16.9702 
3842 1 -3.21525 1.06004 -16.7419 
4744 1 -6.4827 2.26684 -21.1212 
3852 1 -3.82552 1.98592 -20.9861 
95446 1 -5.91884 -1.3675 -21.0984 
3868 3 2.30915 -2.26075 -20.9809 
3871 1 1.53148 -2.14438 -20.2226 
3826 3 2.74768 -1.85441 -14.8247 
3830 1 1.93644 -1.37092 -16.6773 
3835 1 0.0696963 -2.43101 -15.2257 
3846 1 -2.4138 -1.10167 -18.7542 
3844 3 -2.49476 -0.0614608 -18.4557 
3841 1 -2.3411 -1.81159 -16.1232 
3840 1 -2.32277 -0.605601 -14.9754 
3838 3 -2.11656 -0.752634 -16.0259 
3847 1 -1.46419 0.279488 -18.5773 
3831 1 1.92059 0.02466 -15.7445 
3836 1 -0.469282 -0.811307 -17.2868 
3833 3 -0.629504 -0.54945 -16.2355 
3827 3 1.69793 -1.06334 -15.6661 
3837 1 -0.358237 0.489496 -16.204 
3832 3 0.260612 -1.28502 -15.2286 
7414 1 2.33224 1.57685 -18.1106 
7419 1 0.297006 2.22814 -17.0187 
7430 1 -0.485635 1.7663 -14.4747 
7418 1 1.53075 2.04188 -15.8057 
7415 1 2.07937 3.24045 -18.5568 
7411 3 2.40141 2.58335 -17.7436 
7416 3 1.31077 2.65897 -16.6635 
3854 1 -1.05839 1.97756 -19.7946 
7431 1 -1.80764 2.9081 -14.3857 
3855 1 -1.66307 3.08879 -20.8593 
3860 1 -0.134491 -0.402886 -20.7882 
3851 3 -1.60199 1.98343 -20.7418 
3861 1 1.11949 0.917627 -20.656 
7402 1 5.89295 0.0359751 -20.6162 
3869 3 3.71238 -2.51994 -20.4555 
7407 1 4.06182 0.870885 -19.0229 
7413 1 4.22728 2.2674 -16.6081 
7410 3 3.86501 2.96922 -17.3811 
3828 1 3.72704 -1.54034 -15.2307 
3888 1 7.61376 -1.87008 -16.4216 
3889 1 8.19991 -1.14807 -17.7966 
45915 1 4.91418 0.621207 -14.8371 
7404 3 5.01095 1.42771 -19.0273 
3882 1 5.53118 -2.75585 -17.7868 
3883 1 6.01152 -1.91914 -19.2508 
3880 3 6.10943 -2.92322 -18.7089 
3886 3 8.15329 -2.13174 -17.3471 
3887 3 9.63025 -2.64177 -16.8105 
7406 1 5.69856 1.01433 -18.3056 
7401 1 7.75181 1.9027 -19.6769 
4983 1 9.0953 1.67709 -14.3091 
7405 3 4.78061 2.85867 -18.5969 
45910 1 6.07111 -1.34643 -14.4252 
45911 1 7.30923 -0.112221 -14.5489 
3872 1 3.97721 -1.65706 -19.7814 
7399 3 5.73859 1.18935 -20.4217 
4979 1 9.75729 2.01608 -16.7556 
7398 3 7.07248 2.02207 -20.5795 
7400 1 6.9334 3.10819 -20.5658 
45916 1 6.58089 2.35964 -14.4976 
3890 1 10.3486 -2.97086 -17.6445 
3896 1 12.4228 -2.62137 -16.3701 
3892 3 10.4863 -1.72791 -15.8538 
3894 1 10.0369 -1.46405 -14.9616 
4980 3 10.0731 2.15758 -14.6074 
3895 1 10.7364 -0.704923 -16.3026 
3893 3 11.8685 -2.37455 -15.4739 
1310 1 13.8858 1.5889 -20.8763 
3902 1 12.6047 0.21812 -15.5991 
1901 1 12.737 -2.62887 -19.1407 
1897 3 12.1833 -2.90116 -20.0589 
1125 1 16.0113 -1.03946 -17.9429 
3903 1 14.1883 -0.719754 -15.8995 
3899 3 13.4786 -0.395187 -15.1148 
1311 1 12.5456 1.20649 -19.7653 
1314 1 14.5985 1.34707 -18.472 
1307 3 13.2633 2.04324 -20.0186 
3908 1 13.8949 2.59267 -15.053 
3909 1 15.2974 1.72394 -15.4779 
3898 3 12.7877 -1.57331 -14.5458 
3905 3 14.6525 1.87955 -14.6146 
1317 1 16.1262 2.13426 -20.1323 
1312 3 14.3058 2.27697 -18.9206 
4982 1 10.8784 1.36989 -14.6175 
1315 1 13.9557 2.83507 -18.0645 
1130 1 16.2788 -2.23442 -20.1707 
1313 3 15.5433 2.94736 -19.5533 
4975 3 10.0754 2.73336 -16.0031 
4978 1 11.112 2.93799 -16.269 
1898 1 11.9789 -0.793119 -20.8813 
261 3 21.4759 -2.38479 -20.1827 
1114 3 18.1936 -2.58214 -14.6107 
1117 1 19.2433 -2.62986 -14.8462 
1122 1 17.6902 -2.71872 -17.3254 
1119 1 16.4159 -1.70603 -15.514 
265 1 20.5163 -2.76264 -19.7775 
1129 1 17.1125 0.164511 -20.0481 
1127 3 17.428 -1.95656 -20.2101 
1320 1 16.6821 2.84057 -17.631 
1118 1 17.7543 -0.508579 -15.3111 
1121 3 17.0908 -0.715308 -17.9202 
1115 3 17.5369 -1.50578 -15.6063 
1124 1 17.2533 0.276212 -17.4749 
1126 3 17.6441 -0.634175 -19.4231 
1120 3 17.9112 -1.67985 -17.0694 
1131 1 17.956 -2.7513 -19.7056 
1128 1 18.7103 -0.368036 -19.3837 
1123 1 18.952 -1.53342 -17.3132 
270 1 20.4146 -0.0484053 -18.387 
272 3 21.5942 -1.49038 -17.2612 
273 3 21.6073 -0.867836 -15.8538 
275 1 20.8749 -2.34719 -17.3873 
267 3 21.4108 -0.469819 -18.4285 
276 1 20.5702 -0.517711 -15.6066 
278 3 22.0408 -1.83162 -14.6899 
1328 1 19.6907 2.26326 -17.8589 
1329 1 18.5993 2.30344 -16.633 
281 1 21.4064 -2.71183 -14.5557 
277 1 22.3316 -0.0566993 -15.7359 
268 1 20.9027 -0.400931 -20.4418 
1332 1 20.6133 2.11498 -15.462 
1323 1 18.3155 3.11835 -19.5033 
1325 3 19.3999 2.91787 -17.0858 
1335 1 22.41 2.79514 -17.2138 
1330 3 20.5683 3.06184 -16.0107 
266 3 21.6287 -0.947942 -19.8792 
264 1 22.2031 -2.78793 -19.4749 
274 1 22.5375 -2.00144 -17.2819 
271 1 22.0522 0.430479 -18.1753 
269 1 22.5948 -0.607074 -20.3159 
17268 1 -21.8286 6.59457 -17.0706 
47655 1 -19.1059 3.30667 -15.6638 
47648 1 -16.0306 3.4664 -17.5847 
47654 1 -18.0634 3.77202 -14.4404 
47605 1 -18.2542 3.63202 -20.3745 
47607 1 -19.4354 6.40697 -21.1562 
47650 3 -17.4382 4.38207 -16.4207 
17267 3 -21.8598 8.61232 -17.6402 
47603 3 -18.6101 5.79086 -20.7057 
47601 1 -20.8837 5.19804 -19.976 
47652 1 -17.7876 4.96558 -17.2645 
47606 1 -18.1894 6.2347 -19.7638 
47600 1 -20.1152 4.41839 -18.5623 
47597 3 -20.3126 4.28777 -19.6737 
47658 1 -20.1377 5.60376 -15.7665 
47653 1 -16.6249 4.99012 -15.9194 
17271 1 -20.748 8.5601 -17.4752 
47602 3 -19.066 4.37243 -20.5184 
16457 1 -18.8197 8.81286 -16.0298 
16454 3 -18.1074 9.1019 -15.275 
16455 3 -16.7758 8.26433 -15.4047 
16463 1 -16.4813 8.70189 -17.5573 
47659 1 -18.8093 6.18114 -14.7548 
16460 3 -15.8805 8.71303 -16.5629 
47651 3 -18.5202 4.17051 -15.3485 
47656 3 -19.4298 5.32192 -15.0127 
16458 1 -17.0325 7.20701 -15.4164 
16459 1 -16.2301 8.47868 -14.4511 
47613 1 -15.879 5.51621 -20.0653 
47609 3 -16.056 5.20541 -21.1128 
47612 1 -16.1489 4.11282 -21.1291 
7479 1 -12.1152 3.32414 -18.8874 
7476 3 -12.4175 3.91843 -17.9672 
7474 1 -13.7726 3.6175 -16.1792 
7478 1 -13.1913 4.63952 -18.4248 
7485 1 -10.4514 4.64333 -19.5761 
16464 1 -14.126 7.98851 -17.5013 
7484 1 -11.3134 6.07344 -19.1924 
7477 3 -11.1185 4.71013 -17.4717 
7482 3 -10.5717 5.4212 -18.7573 
7481 1 -11.4315 5.44351 -16.6808 
7480 1 -10.3643 4.02249 -17.0824 
16475 1 -11.3225 7.97993 -16.2398 
16461 3 -14.7281 7.72673 -16.6353 
16465 1 -15.2212 6.71471 -16.8383 
16468 1 -13.2382 6.74089 -15.534 
16466 3 -13.8151 7.60587 -15.3134 
16472 3 -11.7928 8.96766 -16.006 
16474 1 -12.3471 9.2595 -16.8318 
16467 3 -12.8105 8.71361 -14.9376 
16469 1 -14.4332 7.32893 -14.4473 
16480 1 -9.338 8.62104 -14.6789 
47618 1 -12.9968 5.25961 -21.0055 
4745 1 -7.258 3.24617 -19.8866 
7483 3 -9.24328 6.20181 -18.6314 
7486 1 -9.24631 7.14628 -18.0959 
7487 1 -8.79709 6.45625 -19.5836 
7488 3 -8.09896 5.42871 -17.9552 
7491 1 -8.25626 5.25357 -16.9476 
7490 1 -8.00178 4.43201 -18.3779 
7492 1 -6.77524 7.06695 -17.7186 
7493 1 -6.33894 6.1581 -19.1704 