# LAMMPS data file
753 atoms
753 ellipsoids
752 bonds

4 atom types
1 bond types

# System size
0.000000 420.000000 xlo xhi
0.000000 420.000000 ylo yhi
0.000000 420.000000 zlo zhi

Masses

1 3.1575
2 3.1575
3 3.1575
4 3.1575

# Atom-ID, type, position, molecule-ID, ellipsoid flag, density
Atoms

1 3  1.621148486437655e+02  8.264544866330237e+01  1.178936359120016e+02 1 1 1
2 1  1.624643570010197e+02  8.278667117494879e+01  1.182765003952487e+02 1 1 1
3 4  1.629487053596944e+02  8.282739514899866e+01  1.185054836424637e+02 1 1 1
4 1  1.634850451701081e+02  8.285857515342072e+01  1.185127305182041e+02 1 1 1
5 4  1.639707754608130e+02  8.297479166981195e+01  1.183146272417850e+02 1 1 1
6 3  1.643225226630448e+02  8.323831838713758e+01  1.180055759885987e+02 1 1 1
7 2  1.645078156234277e+02  8.365546338613267e+01  1.177221299253621e+02 1 1 1
8 4  1.645574219380311e+02  8.417417259396532e+01  1.175911143790348e+02 1 1 1
9 3  1.645536588282154e+02  8.470380599680325e+01  1.176814437746997e+02 1 1 1
10 1  1.645991194519674e+02  8.514957329648885e+01  1.179779398932872e+02 1 1 1
11 4  1.647776960479143e+02  8.544854632961855e+01  1.183870983307654e+02 1 1 1
12 4  1.651227078712662e+02  8.559356652892264e+01  1.187726123845424e+02 1 1 1
13 2  1.656042426516935e+02  8.563596458265587e+01  1.190071582487072e+02 1 1 1
14 4  1.661405207649315e+02  8.566605904792613e+01  1.190207674566363e+02 1 1 1
15 3  1.666289646793208e+02  8.577884282080343e+01  1.188274090712739e+02 1 1 1
16 4  1.669851698750900e+02  8.603789374690636e+01  1.185196826045692e+02 1 1 1
17 2  1.671749715325850e+02  8.645122033488673e+01  1.182336379147058e+02 1 1 1
18 4  1.672274243184607e+02  8.696821919009753e+01  1.180970875903452e+02 1 1 1
19 2  1.672237640320508e+02  8.749890009026311e+01  1.181810488112821e+02 1 1 1
20 4  1.672665447670111e+02  8.794807477547786e+01  1.184727627344960e+02 1 1 1
21 4  1.674406768965261e+02  8.825152055960724e+01  1.188805417919316e+02 1 1 1
22 2  1.677811682029109e+02  8.840037960249636e+01  1.192686033305370e+02 1 1 1
23 4  1.682598238358108e+02  8.844452415153997e+01  1.195086557123235e+02 1 1 1
24 3  1.687959580072433e+02  8.847360924107768e+01  1.195286384525589e+02 1 1 1
25 2  1.692870478714478e+02  8.858301124589620e+01  1.193400992027044e+02 1 1 1
26 4  1.696476836680800e+02  8.883759280183978e+01  1.190338066045581e+02 1 1 1
27 3  1.698420173181422e+02  8.924706040600761e+01  1.187452657656654e+02 1 1 1
28 1  1.698973817085423e+02  8.976227675622191e+01  1.186032376034374e+02 1 1 1
29 4  1.698939064713757e+02  9.029392883365703e+01  1.186808204198591e+02 1 1 1
30 3  1.699340753969967e+02  9.074645941192547e+01  1.189676786344265e+02 1 1 1
31 3  1.701037911286251e+02  9.105437084501406e+01  1.193739694439824e+02 1 1 1
32 1  1.704397393119712e+02  9.120710871806662e+01  1.197644756057265e+02 1 1 1
33 4  1.709154511050797e+02  9.125307164604823e+01  1.200099767284678e+02 1 1 1
34 2  1.714513591339234e+02  9.128122383073830e+01  1.200363422596872e+02 1 1 1
35 4  1.719450264680918e+02  9.138729607307246e+01  1.198526949218366e+02 1 1 1
36 3  1.723100641233086e+02  9.163741604133345e+01  1.195479448375554e+02 1 1 1
37 1  1.725089516809045e+02  9.204298526437485e+01  1.192570110875822e+02 1 1 1
38 4  1.725672919221780e+02  9.255634750018625e+01  1.191095636962549e+02 1 1 1
39 3  1.725640839037243e+02  9.308889413900282e+01  1.191807598212979e+02 1 1 1
40 4  1.726017098950409e+02  9.354472809561196e+01  1.194626902930420e+02 1 1 1
41 4  1.727670386426055e+02  9.385709671533934e+01  1.198673844402157e+02 1 1 1
42 1  1.730984224807207e+02  9.401375222360451e+01  1.202602316187528e+02 1 1 1
43 4  1.735711266384961e+02  9.406160486025591e+01  1.205111220460427e+02 1 1 1
44 1  1.741067263928526e+02  9.408890089515508e+01  1.205438776826641e+02 1 1 1
45 4  1.746029019320115e+02  9.419169639485723e+01  1.203651935431896e+02 1 1 1
46 4  1.749723113626855e+02  9.443736391695525e+01  1.200620941482155e+02 1 1 1
47 2  1.751757733556171e+02  9.483899654904094e+01  1.197688714540143e+02 1 1 1
48 4  1.752371527876403e+02  9.535043362582428e+01  1.196160650931054e+02 1 1 1
49 1  1.752342940759717e+02  9.588379793764211e+01  1.196808681853545e+02 1 1 1
50 4  1.752694467826213e+02  9.634288175163792e+01  1.199578003811365e+02 1 1 1
51 3  1.754304192962627e+02  9.665969773798145e+01  1.203607899377847e+02 1 1 1
52 3  1.757572189572985e+02  9.682030849315876e+01  1.207558738136727e+02 1 1 1
53 4  1.762268526003539e+02  9.687012159258819e+01  1.210120924674707e+02 1 1 1
54 1  1.767620620422283e+02  9.689663849354469e+01  1.210512435774238e+02 1 1 1
55 4  1.772606757573806e+02  9.699621126859475e+01  1.208775924108593e+02 1 1 1
56 1  1.776344255486996e+02  9.723743684230763e+01  1.205762513778182e+02 1 1 1
57 4  1.778424811113516e+02  9.763509587273211e+01  1.202808444034764e+02 1 1 1
58 3  1.779069621482335e+02  9.814453733228427e+01  1.201227409648979e+02 1 1 1
59 1  1.779045347250201e+02  9.867864217965210e+01  1.201811466303174e+02 1 1 1
60 4  1.779372845500264e+02  9.914092134014250e+01  1.204530115395218e+02 1 1 1
61 3  1.780939329068364e+02  9.946217351836857e+01  1.208541890967357e+02 1 1 1
62 1  1.784161299553290e+02  9.962677592735105e+01  1.212514046692127e+02 1 1 1
63 4  1.788826311395861e+02  9.967861964649077e+01  1.215128888484490e+02 1 1 1
64 2  1.794173683498764e+02  9.970443466668461e+01  1.215584388515405e+02 1 1 1
65 4  1.799183494693332e+02  9.980083971673561e+01  1.213898888993277e+02 1 1 1
66 2  1.802964068843688e+02  1.000376351929017e+02  1.210904133652315e+02 1 1 1
67 4  1.805090737518801e+02  1.004312848213570e+02  1.207929274401891e+02 1 1 1
68 3  1.805767178629510e+02  1.009386608133593e+02  1.206295904293940e+02 1 1 1
69 4  1.805748035784882e+02  1.014734288332515e+02  1.206815962226666e+02 1 1 1
70 3  1.806052216568161e+02  1.019388478560109e+02  1.209483263782225e+02 1 1 1
71 1  1.807575792510664e+02  1.022645237000789e+02  1.213475850790460e+02 1 1 1
72 4  1.810751566535523e+02  1.024331529538631e+02  1.217468266980148e+02 1 1 1
73 2  1.815384643891099e+02  1.024870968310990e+02  1.220135120976893e+02 1 1 1
74 4  1.820726475925607e+02  1.025122874375099e+02  1.220654624645612e+02 1 1 1
75 2  1.825759246234985e+02  1.026055807271346e+02  1.219020804142623e+02 1 1 1
76 4  1.829582556131785e+02  1.028379593060428e+02  1.216045769478738e+02 1 1 1
77 4  1.831755501160400e+02  1.032275649535236e+02  1.213051180348396e+02 1 1 1
78 3  1.832464178071272e+02  1.037328062568187e+02  1.211366125514777e+02 1 1 1
79 2  1.832450983554033e+02  1.042681598842010e+02  1.211822179767490e+02 1 1 1
80 4  1.832732565322900e+02  1.047366623285714e+02  1.214437474756813e+02 1 1 1
81 2  1.834213580652604e+02  1.050667479649492e+02  1.218409810476603e+02 1 1 1
82 4  1.837343001954651e+02  1.052394380279158e+02  1.222421424458705e+02 1 1 1
83 1  1.841943544651777e+02  1.052955509619052e+02  1.225139631766410e+02 1 1 1
84 4  1.847279020552891e+02  1.053201948117152e+02  1.225723134283223e+02 1 1 1
85 4  1.852334028055276e+02  1.054104332533588e+02  1.224141643933067e+02 1 1 1
86 2  1.856199720190077e+02  1.056384094807279e+02  1.221187389626778e+02 1 1 1
87 4  1.858419090780875e+02  1.060239378000647e+02  1.218174136253516e+02 1 1 1
88 1  1.859160598730845e+02  1.065269758437422e+02  1.216438063434396e+02 1 1 1
89 4  1.859154167668960e+02  1.070628373351984e+02  1.216830128544694e+02 1 1 1
90 3  1.859413875759671e+02  1.075343658212816e+02  1.219392773779732e+02 1 1 1
91 4  1.860852690453746e+02  1.078688460331717e+02  1.223343801655278e+02 1 1 1
92 4  1.863935616889724e+02  1.080456296327396e+02  1.227373544909452e+02 1 1 1
93 1  1.868503034667316e+02  1.081039798614241e+02  1.230142430991982e+02 1 1 1
94 4  1.873831340306178e+02  1.081281547783628e+02  1.230789908072511e+02 1 1 1
95 1  1.878907856306105e+02  1.082153962150066e+02  1.229261383068609e+02 1 1 1
96 4  1.882815564260421e+02  1.084389859775543e+02  1.226328962470537e+02 1 1 1
97 4  1.885081495480408e+02  1.088204048635712e+02  1.223298116176663e+02 1 1 1
98 4  1.885856419707759e+02  1.093211717478547e+02  1.221511707652781e+02 1 1 1
99 3  1.885857565168980e+02  1.098574632052685e+02  1.221839817649974e+02 1 1 1
100 1  1.886096131580721e+02  1.103319594314048e+02  1.224349185980304e+02 1 1 1
101 4  1.887493118471060e+02  1.106708176633794e+02  1.228277855946382e+02 1 1 1
102 1  1.890529422060501e+02  1.108517262800365e+02  1.232324654429937e+02 1 1 1
103 4  1.895063134747644e+02  1.109123813598561e+02  1.235143529313908e+02 1 1 1
104 3  1.900383458179528e+02  1.109361653104946e+02  1.235854937186502e+02 1 1 1
105 3  1.905480747429833e+02  1.110204684980368e+02  1.234379996588519e+02 1 1 1
106 2  1.909430091986755e+02  1.112396890186402e+02  1.231470456398525e+02 1 1 1
107 4  1.911742704720118e+02  1.116169676179347e+02  1.228423093865323e+02 1 1 1
108 1  1.912551620284211e+02  1.121153961348652e+02  1.226587047250161e+02 1 1 1
109 4  1.912561153028407e+02  1.126520395291483e+02  1.226851255644905e+02 1 1 1
110 3  1.912779316200325e+02  1.131294442896756e+02  1.229306736148767e+02 1 1 1
111 1  1.914134860859976e+02  1.134726626527196e+02  1.233212004950587e+02 1 1 1
112 4  1.917124427824181e+02  1.136577265104336e+02  1.237274779425644e+02 1 1 1
113 1  1.921623865516860e+02  1.137207532957483e+02  1.240142937910600e+02 1 1 1
114 4  1.926935397228496e+02  1.137442243657497e+02  1.240918213329671e+02 1 1 1
115 3  1.932052718154283e+02  1.138256489551077e+02  1.239497459874940e+02 1 1 1
116 4  1.936043307413989e+02  1.140405187875575e+02  1.236611839823294e+02 1 1 1
117 1  1.938402708325274e+02  1.144136275078983e+02  1.233549042763051e+02 1 1 1
118 4  1.939246179931380e+02  1.149096511618061e+02  1.231664070790335e+02 1 1 1
119 2  1.939264908163572e+02  1.154465683566670e+02  1.231864450558336e+02 1 1 1
120 4  1.939463412749839e+02  1.159268215599554e+02  1.234265448728721e+02 1 1 1
121 3  1.940777913375556e+02  1.162743808369154e+02  1.238146280239716e+02 1 1 1
122 2  1.943720644172253e+02  1.164636288939275e+02  1.242223946601953e+02 1 1 1
123 4  1.948185247406947e+02  1.165290935166528e+02  1.245140668475176e+02 1 1 1
124 1  1.953487180563110e+02  1.165523298869867e+02  1.245979728740461e+02 1 1 1
125 4  1.958623785487640e+02  1.166309364059267e+02  1.244613748660390e+02 1 1 1
126 1  1.962655214986769e+02  1.168414754292755e+02  1.241753081191053e+02 1 1 1
127 4  1.965061496488391e+02  1.172103859486167e+02  1.238675936017564e+02 1 1 1
128 2  1.965940078315675e+02  1.177039389763767e+02  1.236742766324158e+02 1 1 1
129 4  1.965968807439850e+02  1.182410517521215e+02  1.236879409883937e+02 1 1 1
130 1  1.966148404082834e+02  1.187240924388779e+02  1.239225347809685e+02 1 1 1
131 4  1.967422271373779e+02  1.190759720903162e+02  1.243080713347123e+02 1 1 1
132 4  1.970318080727449e+02  1.192694320303198e+02  1.247172182956006e+02 1 1 1
133 4  1.974747300651551e+02  1.193373998797825e+02  1.250136733211899e+02 1 1 1
134 3  1.980038831340829e+02  1.193604798029103e+02  1.251039476193654e+02 1 1 1
135 2  1.985193966713269e+02  1.194363296376100e+02  1.249728839035148e+02 1 1 1
136 4  1.989265819548131e+02  1.196425590501165e+02  1.246894148991284e+02 1 1 1
137 4  1.991719059772221e+02  1.200072443252254e+02  1.243803746488919e+02 1 1 1
138 2  1.992633295304936e+02  1.204982617162890e+02  1.241823121393180e+02 1 1 1
139 4  1.992672827678711e+02  1.210354917936480e+02  1.241896140577926e+02 1 1 1
140 3  1.992834272780322e+02  1.215212581554847e+02  1.244186457119759e+02 1 1 1
141 3  1.994067929812966e+02  1.218774363259356e+02  1.248015335758090e+02 1 1 1
142 3  1.996916746740815e+02  1.220751345496439e+02  1.252119515768482e+02 1 1 1
143 3  2.001310045279816e+02  1.221456702526634e+02  1.255131144832459e+02 1 1 1
144 2  2.006590372759488e+02  1.221686720287019e+02  1.256097449002568e+02 1 1 1
145 4  2.011763279384453e+02  1.222418274050519e+02  1.254842707454542e+02 1 1 1
146 2  2.015875126338018e+02  1.224437697177242e+02  1.252035011766339e+02 1 1 1
147 4  2.018375389112626e+02  1.228042039924180e+02  1.248932446757779e+02 1 1 1
148 3  2.019325810974559e+02  1.232926215086161e+02  1.246905123033437e+02 1 1 1
149 3  2.019376945664778e+02  1.238298905725885e+02  1.246914649056940e+02 1 1 1
150 2  2.019521001156062e+02  1.243183199708509e+02  1.249148800018394e+02 1 1 1
151 4  2.020714883255310e+02  1.246787734954783e+02  1.252950178900234e+02 1 1 1
152 3  2.023516651088892e+02  1.248807351125820e+02  1.257065972595286e+02 1 1 1
153 2  2.027873501110287e+02  1.249539025137849e+02  1.260123916552102e+02 1 1 1
154 4  2.033141828050238e+02  1.249769044666551e+02  1.261153641021094e+02 1 1 1
155 3  2.038331741319046e+02  1.250474284313039e+02  1.259955330746119e+02 1 1 1
156 4  2.042483140991686e+02  1.252451074610423e+02  1.257175638121024e+02 1 1 1
157 2  2.045030475821339e+02  1.256012662740342e+02  1.254062009133766e+02 1 1 1
158 4  2.046017605613571e+02  1.260870204691450e+02  1.251988757779409e+02 1 1 1
159 2  2.046081138152900e+02  1.266242501928540e+02  1.251934941196089e+02 1 1 1
160 4  2.046208571261947e+02  1.271152791777009e+02  1.254112399489279e+02 1 1 1
161 1  2.047363125868533e+02  1.274799835893543e+02  1.257885274133937e+02 1 1 1
162 4  2.050117802271012e+02  1.276862324108733e+02  1.262011581259160e+02 1 1 1
163 2  2.054437687744866e+02  1.277620945532452e+02  1.265115062085603e+02 1 1 1
164 4  2.059693220470462e+02  1.277851750068145e+02  1.266208046645570e+02 1 1 1
165 4  2.064899370594043e+02  1.278531314079642e+02  1.265066686116706e+02 1 1 1
166 3  2.069089869537991e+02  1.280465722703060e+02  1.262315996732159e+02 1 1 1
167 4  2.071684311588610e+02  1.283984324626564e+02  1.259192405663896e+02 1 1 1
168 2  2.072708659730632e+02  1.288814607017314e+02  1.257074011668110e+02 1 1 1
169 4  2.072785381875231e+02  1.294185727702839e+02  1.256957022327163e+02 1 1 1
170 4  2.072896964893468e+02  1.299121371000145e+02  1.259077278133340e+02 1 1 1
171 1  2.074012651427662e+02  1.302810666366821e+02  1.262820652742791e+02 1 1 1
172 4  2.076720208406709e+02  1.304916251677123e+02  1.266956369841202e+02 1 1 1
173 2  2.081002624562846e+02  1.305702442733948e+02  1.270104595643088e+02 1 1 1
174 4  2.086244573296696e+02  1.305934815276182e+02  1.271260660816487e+02 1 1 1
175 4  2.091466185540077e+02  1.306589349955756e+02  1.270176751159347e+02 1 1 1
176 1  2.095695318397546e+02  1.308481640970453e+02  1.267456056358123e+02 1 1 1
177 4  2.098336888485738e+02  1.311957038192159e+02  1.264323608141094e+02 1 1 1
178 3  2.099398954059970e+02  1.316759442976592e+02  1.262160870243353e+02 1 1 1
179 1  2.099489653548319e+02  1.322128604320008e+02  1.261980897237004e+02 1 1 1
180 4  2.099586163595265e+02  1.327088950926241e+02  1.264043458161851e+02 1 1 1
181 3  2.100663453316929e+02  1.330820227052799e+02  1.267756345924067e+02 1 1 1
182 4  2.103323877233246e+02  1.332969121381380e+02  1.271900366672316e+02 1 1 1
183 3  2.107568330715008e+02  1.333783495894747e+02  1.275092531925710e+02 1 1 1
184 3  2.112795909817534e+02  1.334018218965444e+02  1.276311479020029e+02 1 1 1
185 3  2.118032204735831e+02  1.334648378240341e+02  1.275285503860137e+02 1 1 1
186 2  2.122299494380773e+02  1.336498828540992e+02  1.272595785848369e+02 1 1 1
187 4  2.124988198967487e+02  1.339930815726087e+02  1.269455588112786e+02 1 1 1
188 2  2.126088469567254e+02  1.344704733350032e+02  1.267249318560145e+02 1 1 1
189 4  2.126193929880197e+02  1.350071153157632e+02  1.267006570166057e+02 1 1 1
190 3  2.126276148666745e+02  1.355055545408013e+02  1.269010961389676e+02 1 1 1
191 3  2.127315524531782e+02  1.358828519016448e+02  1.272692384779217e+02 1 1 1
192 2  2.129928816103259e+02  1.361020921094128e+02  1.276843600324581e+02 1 1 1
193 4  2.134134825117786e+02  1.361864084302520e+02  1.280078886121163e+02 1 1 1
194 2  2.139347253326542e+02  1.362101939707609e+02  1.281360497289451e+02 1 1 1
195 4  2.144597447002384e+02  1.362708384930058e+02  1.280392922604919e+02 1 1 1
196 2  2.148902404685823e+02  1.364517284156424e+02  1.277735154152910e+02 1 1 1
197 4  2.151638235874382e+02  1.367905669193216e+02  1.274588316889564e+02 1 1 1
198 3  2.152777187455389e+02  1.372650498779968e+02  1.272339341189242e+02 1 1 1
199 4  2.152898187577481e+02  1.378013395693141e+02  1.272034044807068e+02 1 1 1
200 2  2.152966901167780e+02  1.383021168598354e+02  1.273979809228616e+02 1 1 1
201 4  2.153968857681018e+02  1.386835543709206e+02  1.277628800304397e+02 1 1 1
202 1  2.156535031982516e+02  1.389071639013921e+02  1.281786099602546e+02 1 1 1
203 4  2.160702126447506e+02  1.389944187386507e+02  1.285063673899064e+02 1 1 1
204 4  2.165898627115151e+02  1.390185955977776e+02  1.286407712206284e+02 1 1 1
205 2  2.171161931397474e+02  1.390769355723536e+02  1.285498986185875e+02 1 1 1
206 4  2.175504056896382e+02  1.392537006172239e+02  1.282874130331783e+02 1 1 1
207 4  2.178286992434893e+02  1.395881610230670e+02  1.279721765553928e+02 1 1 1
208 1  2.179465089170241e+02  1.400596759764023e+02  1.277430922221851e+02 1 1 1
209 4  2.179602403352461e+02  1.405955353497267e+02  1.277063324303967e+02 1 1 1
210 2  2.179658401924472e+02  1.410985834946023e+02  1.278950022680893e+02 1 1 1
211 4  2.180623444989041e+02  1.414841302968530e+02  1.282565623381024e+02 1 1 1
212 4  2.183142531447795e+02  1.417121263668840e+02  1.286727893534462e+02 1 1 1
213 4  2.187270253134693e+02  1.418023784723782e+02  1.290046911406174e+02 1 1 1
214 4  2.192450054465573e+02  1.418270246161024e+02  1.291453120901379e+02 1 1 1
215 4  2.197725677209692e+02  1.418831276025731e+02  1.290603673807983e+02 1 1 1
216 2  2.202104458979368e+02  1.420557992558169e+02  1.288012683564468e+02 1 1 1
217 4  2.204934462267493e+02  1.423858650144293e+02  1.284855904969095e+02 1 1 1
218 4  2.206152156406294e+02  1.428543536648870e+02  1.282524045274473e+02 1 1 1
219 3  2.206306553930198e+02  1.433897048227473e+02  1.282094411250907e+02 1 1 1
220 3  2.206350631535002e+02  1.438949559191240e+02  1.283921622332750e+02 1 1 1
221 2  2.207279278298222e+02  1.442845799017344e+02  1.287502884766373e+02 1 1 1
222 4  2.209751320684883e+02  1.445169783919981e+02  1.291669011363430e+02 1 1 1
223 1  2.213839223358464e+02  1.446102856045472e+02  1.295028615261481e+02 1 1 1
224 4  2.219001558643703e+02  1.446354788558995e+02  1.296496721055777e+02 1 1 1
225 2  2.224288703952612e+02  1.446894130952366e+02  1.295706965095347e+02 1 1 1
226 4  2.228703619282498e+02  1.448580240898807e+02  1.293150783159279e+02 1 1 1
227 4  2.231580639382609e+02  1.451836799905197e+02  1.289990705787869e+02 1 1 1
228 1  2.232838371112218e+02  1.456490849624035e+02  1.287618693493896e+02 1 1 1
229 4  2.233010616055612e+02  1.461838501621359e+02  1.287127307691474e+02 1 1 1
230 4  2.233043570375532e+02  1.466912356361202e+02  1.288894628348177e+02 1 1 1
231 4  2.233936349071391e+02  1.470849034463357e+02  1.292440615084203e+02 1 1 1
232 2  2.236361405486687e+02  1.473217188964856e+02  1.296609482538501e+02 1 1 1
233 4  2.240409055040984e+02  1.474181381242936e+02  1.300008802551139e+02 1 1 1
234 4  2.245553162892033e+02  1.474439561396506e+02  1.301538510901419e+02 1 1 1
235 3  2.250851031358841e+02  1.474957905334472e+02  1.300808840097413e+02 1 1 1
236 3  2.255301546531747e+02  1.476603748394340e+02  1.298288398562712e+02 1 1 1
237 3  2.258225518184438e+02  1.479816070146426e+02  1.295126138461586e+02 1 1 1
238 3  2.259523715496375e+02  1.484438718715744e+02  1.292714849562325e+02 1 1 1
239 3  2.259714566500569e+02  1.489779735490037e+02  1.292162015118062e+02 1 1 1
240 4  2.259737198606186e+02  1.494874241765499e+02  1.293869060462775e+02 1 1 1
241 3  2.260594648394433e+02  1.498851012298269e+02  1.297378844815434e+02 1 1 1
242 1  2.262972791251475e+02  1.501263468340677e+02  1.301549336705702e+02 1 1 1
243 4  2.266979765842012e+02  1.502259340373886e+02  1.304987490823262e+02 1 1 1
244 4  2.272104890422575e+02  1.502524542828177e+02  1.306578489221685e+02 1 1 1
245 3  2.277412679374012e+02  1.503022583723003e+02  1.305909279295039e+02 1 1 1
246 2  2.281898249828691e+02  1.504628511861408e+02  1.303425499368753e+02 1 1 1
247 4  2.284869093472659e+02  1.507796471159714e+02  1.300262173249111e+02 1 1 1
248 1  2.286208172032234e+02  1.512387163780827e+02  1.297812495702661e+02 1 1 1
249 4  2.286418382070950e+02  1.517720771711487e+02  1.297198534471426e+02 1 1 1
250 1  2.286431496177095e+02  1.522835230991455e+02  1.298844937977741e+02 1 1 1
251 4  2.287254166979004e+02  1.526851735896860e+02  1.302317604288859e+02 1 1 1
252 1  2.289585482981228e+02  1.529308611927546e+02  1.306488603699007e+02 1 1 1
253 4  2.293551373153515e+02  1.530336713668467e+02  1.309964698082580e+02 1 1 1
254 4  2.298656764409784e+02  1.530609710945090e+02  1.311616655351763e+02 1 1 1
255 1  2.303973668150706e+02  1.531088150393543e+02  1.311008263606444e+02 1 1 1
256 4  2.308493738647733e+02  1.532654527734066e+02  1.308562055328140e+02 1 1 1
257 4  2.311511360444013e+02  1.535778012892350e+02  1.305398780225903e+02 1 1 1
258 1  2.312891723463711e+02  1.540336204500664e+02  1.302911613683915e+02 1 1 1
259 4  2.313122039613724e+02  1.545661632223897e+02  1.302236866140387e+02 1 1 1
260 4  2.313126442834498e+02  1.550795339899379e+02  1.303822279753987e+02 1 1 1
261 3  2.313914895165362e+02  1.554851209015966e+02  1.307256923671908e+02 1 1 1
262 1  2.316199485280118e+02  1.557352609951540e+02  1.311427313531250e+02 1 1 1
263 4  2.320123894094378e+02  1.558413481535270e+02  1.314940442784954e+02 1 1 1
264 3  2.325208807983507e+02  1.558695043781459e+02  1.316653009178850e+02 1 1 1
265 4  2.330534018042316e+02  1.559154589351099e+02  1.316105774393017e+02 1 1 1
266 2  2.335088022833217e+02  1.560681792064877e+02  1.313698036357575e+02 1 1 1
267 4  2.338152314693764e+02  1.563760704944152e+02  1.310535929293123e+02 1 1 1
268 4  2.339574352810427e+02  1.568285860375195e+02  1.308012184826761e+02 1 1 1
269 1  2.339825516023993e+02  1.573602339018978e+02  1.307277009961719e+02 1 1 1
270 4  2.339822018126922e+02  1.578754584617732e+02  1.308801104206399e+02 1 1 1
271 1  2.340576822925310e+02  1.582849435793327e+02  1.312196832961453e+02 1 1 1
272 4  2.342814802353105e+02  1.585395452987681e+02  1.316365496384981e+02 1 1 1
273 4  2.346697345505184e+02  1.586489624567309e+02  1.319914743831752e+02 1 1 1
274 3  2.351761044221931e+02  1.586780519321326e+02  1.321687551142189e+02 1 1 1
275 4  2.357093749596844e+02  1.587221884334968e+02  1.321201793465001e+02 1 1 1
276 1  2.361681112596432e+02  1.588710300526110e+02  1.318833412548890e+02 1 1 1
277 4  2.364791952217050e+02  1.591744556564535e+02  1.315673590186808e+02 1 1 1
278 2  2.366256043372878e+02  1.596236150716977e+02  1.313114190009224e+02 1 1 1
279 4  2.366528788252037e+02  1.601542914135261e+02  1.312318965220196e+02 1 1 1
280 1  2.366518201411401e+02  1.606712981538218e+02  1.313781429298226e+02 1 1 1
281 4  2.367239939865247e+02  1.610846420746333e+02  1.317137361974679e+02 1 1 1
282 1  2.369431438004655e+02  1.613437131962815e+02  1.321303182603272e+02 1 1 1
283 4  2.373271743943086e+02  1.614565123547928e+02  1.324887620564097e+02 1 1 1
284 2  2.378313496144556e+02  1.614866115505262e+02  1.326720282232934e+02 1 1 1
285 4  2.383652883550645e+02  1.615290018823697e+02  1.326296303087025e+02 1 1 1
286 2  2.388273018512498e+02  1.616740048411061e+02  1.323968154178158e+02 1 1 1
287 4  2.391430269410090e+02  1.619729576649702e+02  1.320811732487087e+02 1 1 1
288 1  2.392936778737522e+02  1.624187094645301e+02  1.318217609672511e+02 1 1 1
289 4  2.393231833310329e+02  1.629483379651392e+02  1.317362730648809e+02 1 1 1
290 1  2.393214971859770e+02  1.634670547310785e+02  1.318763272535605e+02 1 1 1
291 4  2.393904235229338e+02  1.638842168770646e+02  1.322078540339996e+02 1 1 1
292 2  2.396049395637583e+02  1.641477638158372e+02  1.326240402680475e+02 1 1 1
293 4  2.399847105676762e+02  1.642639959456654e+02  1.329859092756969e+02 1 1 1
294 3  2.404866186705183e+02  1.642951810237088e+02  1.331751203993850e+02 1 1 1
295 2  2.410211440822106e+02  1.643358976040108e+02  1.331389285983516e+02 1 1 1
296 4  2.414863751517148e+02  1.644771030635485e+02  1.329102231714743e+02 1 1 1
297 1  2.418067263071293e+02  1.647715773739930e+02  1.325950325627449e+02 1 1 1
298 4  2.419616542781782e+02  1.652138711080373e+02  1.323322423826959e+02 1 1 1
299 2  2.419934628280543e+02  1.657423757679399e+02  1.322408304429158e+02 1 1 1
300 4  2.419912308465009e+02  1.662627298838559e+02  1.323746650962234e+02 1 1 1
301 2  2.420569697902787e+02  1.666836685138708e+02  1.327020397488014e+02 1 1 1
302 4  2.422668678252016e+02  1.669516963213021e+02  1.331177187252935e+02 1 1 1
303 1  2.426423446681464e+02  1.670714113474994e+02  1.334829180613186e+02 1 1 1
304 4  2.431419138784920e+02  1.671037581390608e+02  1.336780318518838e+02 1 1 1
305 2  2.436769442505281e+02  1.671428738956414e+02  1.336480725343952e+02 1 1 1
306 4  2.441453322903393e+02  1.672803241739144e+02  1.334235615830300e+02 1 1 1
307 1  2.444702930402226e+02  1.675703156016966e+02  1.331089338904050e+02 1 1 1
308 4  2.446295319678951e+02  1.680091018737542e+02  1.328428612058134e+02 1 1 1
309 4  2.446637150320530e+02  1.685364070357961e+02  1.327455684191997e+02 1 1 1
310 1  2.446610190047641e+02  1.690583253272693e+02  1.328731581154176e+02 1 1 1
311 4  2.447236316415225e+02  1.694829975498133e+02  1.331962962642581e+02 1 1 1
312 3  2.449289288444479e+02  1.697555099125216e+02  1.336113567089653e+02 1 1 1
313 2  2.453000782634145e+02  1.698787566992164e+02  1.339797904757246e+02 1 1 1
314 4  2.457972375185215e+02  1.699123406816347e+02  1.341807628452305e+02 1 1 1
315 2  2.463326909863459e+02  1.699499290299404e+02  1.341570604827990e+02 1 1 1
316 4  2.468041744318085e+02  1.700836675887473e+02  1.339368277407706e+02 1 1 1
317 3  2.471337269008470e+02  1.703691731301539e+02  1.336228741485072e+02 1 1 1
318 2  2.472973093903020e+02  1.708044036121608e+02  1.333536153533042e+02 1 1 1
319 4  2.473339376671280e+02  1.713304339845665e+02  1.332504867017964e+02 1 1 1
320 2  2.473308595262184e+02  1.718538428007142e+02  1.333718079214810e+02 1 1 1
321 4  2.473904078944204e+02  1.722822045869994e+02  1.336906264811876e+02 1 1 1
322 4  2.475911228407101e+02  1.725592038255641e+02  1.341049573082919e+02 1 1 1
323 2  2.479579128908691e+02  1.726860301610759e+02  1.344765286229051e+02 1 1 1
324 4  2.484525918620910e+02  1.727209264348296e+02  1.346833136988350e+02 1 1 1
325 4  2.489883864322691e+02  1.727570612555704e+02  1.346658908570439e+02 1 1 1
326 2  2.494629027758370e+02  1.728871326873355e+02  1.344500187549931e+02 1 1 1
327 4  2.497970276900350e+02  1.731681507050979e+02  1.341368502420109e+02 1 1 1
328 4  2.499649850233402e+02  1.735997781521178e+02  1.338645027006479e+02 1 1 1
329 3  2.500041284663850e+02  1.741244588314250e+02  1.337555849438463e+02 1 1 1
330 3  2.500007502603650e+02  1.746492840673364e+02  1.338706160769931e+02 1 1 1
331 2  2.500572973318796e+02  1.750812902646980e+02  1.341850332779581e+02 1 1 1
332 4  2.502534499926955e+02  1.753627773329525e+02  1.345985236238897e+02 1 1 1
333 4  2.506158500571230e+02  1.754932299152360e+02  1.349731346477490e+02 1 1 1
334 3  2.511079791713319e+02  1.755295131810670e+02  1.351856847869797e+02 1 1 1
335 4  2.516440327465260e+02  1.755642687977112e+02  1.351745621186095e+02 1 1 1
336 4  2.521215185568031e+02  1.756907188119014e+02  1.349631317588838e+02 1 1 1
337 3  2.524601952493535e+02  1.759672490356940e+02  1.346508590649596e+02 1 1 1
338 3  2.526325573759570e+02  1.763952273003102e+02  1.343755210827502e+02 1 1 1
339 1  2.526742851726275e+02  1.769184837941862e+02  1.342608627436726e+02 1 1 1
340 4  2.526706890414101e+02  1.774446509134952e+02  1.343695840962981e+02 1 1 1
341 4  2.527242987023303e+02  1.778802552591454e+02  1.346795195096104e+02 1 1 1
342 1  2.529159104385505e+02  1.781662297438868e+02  1.350920587668186e+02 1 1 1
343 4  2.532738912375550e+02  1.783003541663066e+02  1.354696107353912e+02 1 1 1
344 2  2.537634016983341e+02  1.783380987024656e+02  1.356878765387053e+02 1 1 1
345 4  2.542996321023111e+02  1.783715498586006e+02  1.356830727774426e+02 1 1 1
346 2  2.547800230433727e+02  1.784944252678015e+02  1.354761639093918e+02 1 1 1
347 4  2.551232294609531e+02  1.787664687943241e+02  1.351648975014274e+02 1 1 1
348 4  2.553000249885601e+02  1.791907528406963e+02  1.348866682946021e+02 1 1 1
349 3  2.553444055390439e+02  1.797125110906291e+02  1.347663196449036e+02 1 1 1
350 1  2.553406736889243e+02  1.802399451482189e+02  1.348687134450446e+02 1 1 1
351 4  2.553914107201068e+02  1.806791002833392e+02  1.351740880069889e+02 1 1 1
352 4  2.555785042758189e+02  1.809695604044542e+02  1.355855658576337e+02 1 1 1
353 4  2.559320378758601e+02  1.811074011418968e+02  1.359659591105465e+02 1 1 1
354 2  2.564188616844597e+02  1.811466807815172e+02  1.361898894376801e+02 1 1 1
355 4  2.569551866871227e+02  1.811789026180819e+02  1.361914213924112e+02 1 1 1
356 2  2.574384175381132e+02  1.812982513237383e+02  1.359891123880950e+02 1 1 1
357 4  2.577861302476028e+02  1.815658106163824e+02  1.356789624264675e+02 1 1 1
358 4  2.579673864334617e+02  1.819863565339648e+02  1.353979420919522e+02 1 1 1
359 4  2.580144873298919e+02  1.825065429378219e+02  1.352719551366113e+02 1 1 1
360 2  2.580107020085066e+02  1.830351686026543e+02  1.353680055397385e+02 1 1 1
361 4  2.580586320658389e+02  1.834778260868212e+02  1.356687415758791e+02 1 1 1
362 2  2.582412315614122e+02  1.837727686978279e+02  1.360790480254351e+02 1 1 1
363 4  2.585902913836093e+02  1.839143690931543e+02  1.364621820368325e+02 1 1 1
364 2  2.590743613596603e+02  1.839552572017624e+02  1.366917240220527e+02 1 1 1
365 4  2.596106987020968e+02  1.839863252341580e+02  1.366996065717434e+02 1 1 1
366 2  2.600967033770967e+02  1.841021962119830e+02  1.365019744020583e+02 1 1 1
367 4  2.604488975727145e+02  1.843652751000811e+02  1.361930507070647e+02 1 1 1
368 2  2.606346403153140e+02  1.847820401169982e+02  1.359093401919897e+02 1 1 1