# LAMMPS data file
13 atoms
13 ellipsoids
12 bonds

4 atom types
1 bond types

# System size
-20.000000 20.000000 xlo xhi
-20.000000 20.000000 ylo yhi
-20.000000 20.000000 zlo zhi

# Atom-ID, type, position, molecule-ID, ellipsoid flag, density
Atoms

1 1 -6.000000000000001e-01  0.000000000000000e+00  0.000000000000000e+00 1 1 1
2 2 -4.957432645895970e-01 -3.379920348381733e-01  3.897628551303122e-01 1 1 1
3 3 -2.192046146198370e-01 -5.585242491865227e-01  7.795257102606244e-01 1 1 1
4 4  1.335125603737887e-01 -5.849567473090943e-01  1.169288565390937e+00 1 1 1
5 1  4.398311230978960e-01 -4.081036426625517e-01  1.559051420521249e+00 1 1 1
6 2  5.932984957350773e-01 -8.942535970570469e-02  1.948814275651561e+00 1 1 1
7 3  5.405813207414517e-01  2.603302434705350e-01  2.338577130781873e+00 1 1 1
8 4  3.000000000000002e-01  5.196152422706634e-01  2.728339985912185e+00 1 1 1
9 1 -4.483805615185452e-02  5.983222783087083e-01  3.118102841042497e+00 1 1 1
10 2 -3.740938811152403e-01  4.690988894808181e-01  3.507865696172809e+00 1 1 1
11 3 -5.733436834716847e-01  1.768531046465427e-01  3.897628551303121e+00 1 1 1
12 4 -5.733436834716849e-01 -1.768531046465427e-01  4.287391406433434e+00 1 1 1
13 1 -3.740938811152403e-01 -4.690988894808182e-01  4.677154261563746e+00 1 1 1

# Atom-ID, translational, rotational velocity
Velocities

1  0.000000000000000e+00  0.000000000000000e+00  0.000000000000000e+00  0.000000000000000e+00  0.000000000000000e+00  0.000000000000000e+00
2  0.000000000000000e+00  0.000000000000000e+00  0.000000000000000e+00  0.000000000000000e+00  0.000000000000000e+00  0.000000000000000e+00
3  0.000000000000000e+00  0.000000000000000e+00  0.000000000000000e+00  0.000000000000000e+00  0.000000000000000e+00  0.000000000000000e+00
4  0.000000000000000e+00  0.000000000000000e+00  0.000000000000000e+00  0.000000000000000e+00  0.000000000000000e+00  0.000000000000000e+00
5  0.000000000000000e+00  0.000000000000000e+00  0.000000000000000e+00  0.000000000000000e+00  0.000000000000000e+00  0.000000000000000e+00
6  0.000000000000000e+00  0.000000000000000e+00  0.000000000000000e+00  0.000000000000000e+00  0.000000000000000e+00  0.000000000000000e+00
7  0.000000000000000e+00  0.000000000000000e+00  0.000000000000000e+00  0.000000000000000e+00  0.000000000000000e+00  0.000000000000000e+00
8  0.000000000000000e+00  0.000000000000000e+00  0.000000000000000e+00  0.000000000000000e+00  0.000000000000000e+00  0.000000000000000e+00
9  0.000000000000000e+00  0.000000000000000e+00  0.000000000000000e+00  0.000000000000000e+00  0.000000000000000e+00  0.000000000000000e+00
10  0.000000000000000e+00  0.000000000000000e+00  0.000000000000000e+00  0.000000000000000e+00  0.000000000000000e+00  0.000000000000000e+00
11  0.000000000000000e+00  0.000000000000000e+00  0.000000000000000e+00  0.000000000000000e+00  0.000000000000000e+00  0.000000000000000e+00
12  0.000000000000000e+00  0.000000000000000e+00  0.000000000000000e+00  0.000000000000000e+00  0.000000000000000e+00  0.000000000000000e+00
13  0.000000000000000e+00  0.000000000000000e+00  0.000000000000000e+00  0.000000000000000e+00  0.000000000000000e+00  0.000000000000000e+00

# Atom-ID, shape, quaternion
Ellipsoids

1  1.173984503142341e+00  1.173984503142341e+00  1.173984503142341e+00  1.000000000000000e+00  0.000000000000000e+00  0.000000000000000e+00  0.000000000000000e+00
2  1.173984503142341e+00  1.173984503142341e+00  1.173984503142341e+00  9.555728057861408e-01  0.000000000000000e+00  0.000000000000000e+00  2.947551744109042e-01
3  1.173984503142341e+00  1.173984503142341e+00  1.173984503142341e+00  8.262387743159949e-01  0.000000000000000e+00  0.000000000000000e+00  5.633200580636221e-01
4  1.173984503142341e+00  1.173984503142341e+00  1.173984503142341e+00  6.234898018587335e-01  0.000000000000000e+00  0.000000000000000e+00  7.818314824680299e-01
5  1.173984503142341e+00  1.173984503142341e+00  1.173984503142341e+00  3.653410243663950e-01  0.000000000000000e+00  0.000000000000000e+00  9.308737486442042e-01
6  1.173984503142341e+00  1.173984503142341e+00  1.173984503142341e+00  7.473009358642424e-02  0.000000000000000e+00  0.000000000000000e+00  9.972037971811802e-01
7  1.173984503142341e+00  1.173984503142341e+00  1.173984503142341e+00 -2.225209339563144e-01  0.000000000000000e+00  0.000000000000000e+00  9.749279121818237e-01
8  1.173984503142341e+00  1.173984503142341e+00  1.173984503142341e+00 -5.000000000000001e-01  0.000000000000000e+00  0.000000000000000e+00  8.660254037844387e-01
9  1.173984503142341e+00  1.173984503142341e+00  1.173984503142341e+00  7.330518718298263e-01 -0.000000000000000e+00  0.000000000000000e+00 -6.801727377709196e-01
10  1.173984503142341e+00  1.173984503142341e+00  1.173984503142341e+00  9.009688679024190e-01 -0.000000000000000e+00  0.000000000000000e+00 -4.338837391175581e-01
11  1.173984503142341e+00  1.173984503142341e+00  1.173984503142341e+00  9.888308262251286e-01 -0.000000000000000e+00  0.000000000000000e+00 -1.490422661761745e-01
12  1.173984503142341e+00  1.173984503142341e+00  1.173984503142341e+00  9.888308262251286e-01  0.000000000000000e+00  0.000000000000000e+00  1.490422661761745e-01
13  1.173984503142341e+00  1.173984503142341e+00  1.173984503142341e+00  9.009688679024190e-01  0.000000000000000e+00  0.000000000000000e+00  4.338837391175582e-01

# Bond topology
Bonds

1  1  1  2
2  1  2  3
3  1  3  4
4  1  4  5
5  1  5  6
6  1  6  7
7  1  7  8
8  1  8  9
9  1  9  10
10  1  10  11
11  1  11  12
12  1  12  13
