LAMMPS data file via write_data, version 15 Jun 2020, timestep = 2004517

13 atoms
4 atom types
12 bonds
1 bond types

-1.3199664131884636e+00 9.1607142397187791e-01 xlo xhi
-1.1635216857627870e+00 1.7294137423978939e+00 ylo yhi
2.3090516664548946e+00 5.4579770778941228e+00 zlo zhi

Masses

1 3.45846e-323
2 2.122e-314
3 1.39798e-308
4 5.46085e-311

Bond Coeffs # oxdna2/fene

1 2 0.7564 0.25

Atoms # hybrid

1 1 -9.7828762690528881e-01 1.7254137423978939e+00 3.3693924274005633e+00 
2 2 -1.3003844321617288e+00 1.0218940263395420e+00 2.9824790953752744e+00 
3 3 -9.3251095363401826e-01 2.0705767009354312e-01 2.8638115169741329e+00 
4 4 -1.8830258141561707e-01 -1.8029772038629227e-01 2.7025015687843599e+000
5 1 -2.7250098557891461e-01 -7.3384336212222268e-01 2.3130516664548946e+000
6 2 8.9272244924299626e-01 -1.1595216857627870e+00 2.5291361199398237e+00 
7 3 9.1207142397187790e-01 -6.7064589576497835e-01 2.4300062115183394e+00 
8 4 4.9124406572016399e-01 -6.2691676645714622e-01 3.9771925583231207e+00 
9 1 -3.0277986670360676e-02 -8.0528903507671099e-02 3.4075570001396427e+000
10 2 -4.8497483444382633e-01 1.4039258276790575e-01 3.4428087703161978e+000
11 3 -1.3071126328373772e+00 9.2986832041139356e-01 3.7026762608982109e+000
12 4 -1.0861686383410127e+00 1.5186280067752509e+00 4.0531984493810853e+000
13 1 -1.3159664131884636e+00 1.2220574217080153e+00 5.4539770778941232e+000

Velocities

1 9.9391043800381745e-02 1.2619665813825823e-01 3.6627162270207192e-01 1.2326510497565973e-01 -4.8921095208387755e-01 -4.3264486818962167e-03
2 6.2574425872667219e-02 -2.5445674753456765e-01 -3.0061296251451231e-01 -7.0800778488528393e-02 -2.2553798456675872e-01 -1.0562146499198685e-01
3 1.1698478011855477e-01 1.9513027824962273e-01 -1.3558947913222569e-01 1.8483523455531464e-01 3.1481258844415444e-01 3.5642844680561087e-03
4 3.2163852953777911e-02 -1.5693826709737006e-02 4.3684008031079635e-02 -1.1028823720885847e-01 2.3798904232457313e-01 3.7559419579583930e-01
5 9.8781501978503369e-02 -1.1515142655537387e-01 -1.7046918719131646e-01 -2.0147265041215154e-01 -2.9336055735438826e-01 -6.2029203216046276e-02
6 7.9578319478142617e-02 2.9791596148578409e-01 -4.0463877725689663e-02 9.8083916528420204e-02 2.3217144828423231e-01 -5.0711323222692106e-01
7 -1.6841618743406936e-01 -2.5844379183846378e-01 2.6307940360404170e-02 -3.0537910865869078e-01 2.2068774908316574e-02 -1.2951214743804468e-01
8 -4.0647768507910292e-01 -9.6480759141683914e-02 -3.2539721367542099e-03 -1.6412254641585389e-01 -1.1795800047816260e-02 1.8913870694532420e-01
9 -1.1318750272199786e-01 -2.5135822518751318e-02 -1.1724524053199691e-01 -7.1200383923099936e-02 -7.8258625596143702e-02 -1.8343981373860324e-01
10 1.8244117446655779e-02 9.0634875858555619e-02 -2.6563302693398089e-01 3.4015009525853526e-02 -5.4204853341432831e-02 1.1435922965526192e-01
11 1.4049092209372893e-01 1.0904789055491384e-02 -1.4301154900544574e-01 -1.5164420042694182e-01 -2.8341741954370203e-01 -9.4199523450429257e-02
12 1.0840310954527564e-01 -6.4206867198841862e-03 -3.8012624238696162e-02 1.6748345488471053e-02 4.7527049099714436e-01 -1.4367139734699708e-01
13 2.4677703124373392e-02 -1.2732076828270864e-01 1.6371555645253136e-01 1.9644790871005197e-01 1.8972033794286697e-01 -1.3649906347198645e-01

Bonds

1 1 1 2
2 1 2 3
3 1 3 4
4 1 4 5
5 1 5 6
6 1 6 7
7 1 7 8
8 1 8 9
9 1 9 10
10 1 10 11
11 1 11 12
12 1 12 13
