LAMMPS data file via write_data, version 30 Nov 2020, timestep = 399

1200 atoms
3 atom types
1200 bonds
3 bond types
400 angles
1 angle types

-50 51.4 xlo xhi
-50 51.4 ylo yhi
-50 50 zlo zhi

Masses

1 24
2 24
3 24

Atoms # full

1 1 1 0 0 0 0 0 0 0
2 1 2 0.46 1.4 0 0 0 0 0
3 1 3 -0.46 0 1.4 0 0 0 0
4 2 1 0 24.471228270796676 -41.36036716161291 -8.04076073104574 0 0 0
5 2 2 0.46 24.7904650820731 -42.59406485267161 -8.620482962293165 0 0 0
6 2 3 -0.46 25.08437357976471 -40.69863119798216 -9.11134858102732 0 0 0
7 3 1 0 24.842815781887857 43.88119397965772 -25.231978692559338 0 0 0
8 3 2 0.46 24.815105875329266 43.16582881091942 -24.028864052786997 0 0 0
9 3 3 -0.46 25.119712958409846 45.05796205152627 -24.52590160139653 0 0 0
10 4 1 0 -20.96708835352857 41.74526790886865 -12.170956497572863 0 0 0
11 4 2 0.46 -20.535101483122183 42.03479301841467 -13.470788238506612 0 0 0
12 4 3 -0.46 -20.35438805336937 42.915341504342294 -11.706708586042602 0 0 0
13 5 1 0 46.99727246765281 -26.283449935291788 -31.87798494298253 0 0 0
14 5 2 0.46 46.13745944825002 -27.159451772051696 -32.55129197076311 0 0 0
15 5 3 -0.46 46.35445570658156 -26.580727197803654 -30.670337295330572 0 0 0
16 6 1 0 36.36264381132013 50.31503979031499 10.326908231773094 0 0 0
17 6 2 0.46 37.48536144987397 50.60047575965106 9.540758493180455 0 0 0
18 6 3 -0.46 35.71826859383566 -49.95083406524598 9.818441450565423 0 1 0
19 7 1 0 9.316173748078452 -12.29296690871686 1.8448903201169315 0 0 0
20 7 2 0.46 10.56344100603071 -11.708778823954995 2.0959852600550297 0 0 0
21 7 3 -0.46 8.82458836609277 -11.056413033647255 1.4098290298734362 0 0 0
22 8 1 0 19.68397608343513 -45.618219753618746 -1.8444068300067316 0 0 0
23 8 2 0.46 20.865013021608064 -46.34787938456696 -1.6634411602358627 0 0 0
24 8 3 -0.46 19.986358387360795 -44.84859602815193 -0.714697016173468 0 0 0
25 9 1 0 -11.280960325931815 12.464355955710362 45.974188887420695 0 0 0
26 9 2 0.46 -11.435829646055513 12.914461969182302 44.657594769888334 0 0 0
27 9 3 -0.46 -9.896123430468013 12.385627007991177 45.78437707073584 0 0 0
28 10 1 0 -29.023822489336403 45.13004792095298 -11.133287814721795 0 0 0
29 10 2 0.46 -29.874636165791774 44.35166455617076 -11.927161498242542 0 0 0
30 10 3 -0.46 -29.763178680823085 44.77958218986192 -9.997274525432836 0 0 0
31 11 1 0 -6.469184083701825 -20.75959255187881 -23.834825120808528 0 0 0
32 11 2 0.46 -6.322926686878832 -20.26896072608268 -22.53179435164361 0 0 0
33 11 3 -0.46 -5.473689727689673 -19.880421151588607 -24.277598918655368 0 0 0
34 12 1 0 -25.190252258637827 8.969853027812082 -36.07053334418539 0 0 0
35 12 2 0.46 -25.449036453467297 8.125697966822603 -37.157010667240186 0 0 0
36 12 3 -0.46 -24.870442158967716 7.857698884059266 -35.28260272497934 0 0 0
37 13 1 0 -26.741000021584387 -12.904009413665623 -27.216727683618103 0 0 0
38 13 2 0.46 -26.093310612330782 -11.913892476270233 -27.965170653672264 0 0 0
39 13 3 -0.46 -26.751509164134262 -12.055443926885628 -26.103252864608397 0 0 0
40 14 1 0 -47.446961217497815 8.9545843093019 40.04867004816042 0 0 0
41 14 2 0.46 -46.04808980731192 8.934051760930192 39.99635186564342 0 0 0
42 14 3 -0.46 -47.42644340787872 10.354433734899711 40.047892139478364 0 0 0
43 15 1 0 43.95915142403785 24.793737100902135 -46.91273546995304 0 0 0
44 15 2 0.46 44.49158723135958 24.203598983123623 -45.760238566258074 0 0 0
45 15 3 -0.46 45.12907596192897 25.546937320725366 -47.067545044910425 0 0 0
46 16 1 0 39.307703652653736 9.392442143229504 35.605602972749196 0 0 0
47 16 2 0.46 40.64948528404676 9.775082743258734 35.49067593125969 0 0 0
48 16 3 -0.46 39.66503934516172 8.423208371654262 36.55053529778516 0 0 0
49 17 1 0 48.06404899073124 40.60955470155676 1.9457411394465165 0 0 0
50 17 2 0.46 47.89640984385142 41.793023915425664 1.2168394065236705 0 0 0
51 17 3 -0.46 46.94355327256985 40.928906295042125 2.721952389893431 0 0 0
52 18 1 0 12.241000898133578 3.3212409612059752 41.234209594974 0 0 0
53 18 2 0.46 12.796868719055924 4.496354650784928 40.7144800670201 0 0 0
54 18 3 -0.46 11.54239693633736 3.12236951408579 40.03737934298212 0 0 0
55 19 1 0 -40.46596437728877 -6.893224903982763 -47.29473413451756 0 0 0
56 19 2 0.46 -40.8879976485126 -6.056666379885305 -48.334954185151076 0 0 0
57 19 3 -0.46 -40.23995259998949 -5.7732243831449646 -46.485711570033054 0 0 0
58 20 1 0 41.7152092089618 -29.283697601972918 41.00451349976124 0 0 0
59 20 2 0.46 43.030393921922226 -29.63197548696043 41.33465238814586 0 0 0
60 20 3 -0.46 41.65713627409737 -28.443147389199957 42.122593494235495 0 0 0
61 21 1 0 49.448137977140654 21.434182871611043 38.430843307562846 0 0 0
62 21 2 0.46 49.8348161158612 20.1266964305809 38.74858411948027 0 0 0
63 21 3 -0.46 49.24646017545523 21.704730655582047 39.78956695897093 0 0 0
64 22 1 0 30.279928887051298 39.86034286238211 2.663065738018758 0 0 0
65 22 2 0.46 29.88977430466387 39.60007290719108 3.982171098582101 0 0 0
66 22 3 -0.46 28.960143453026255 39.67214239933195 2.2355765640704206 0 0 0
67 23 1 0 -23.853765045313025 48.92022628728335 -11.926069440114738 0 0 0
68 23 2 0.46 -23.210102062354792 50.15466883248081 -12.07388543037198 0 0 0
69 23 3 -0.46 -24.673793285794538 49.46687195838114 -10.931719303048908 0 0 0
70 24 1 0 1.3854118812232823 20.603144243122838 -42.57621797147627 0 0 0
71 24 2 0.46 1.6649208427385038 21.96899999107831 -42.4484963358397 0 0 0
72 24 3 -0.46 1.2976605627130497 20.75102490981982 -43.965617487280475 0 0 0
73 25 1 0 -33.47925581197295 9.534183193352657 -39.5001636597769 0 0 0
74 25 2 0.46 -34.56153199125171 10.082868713501519 -40.19846336029577 0 0 0
75 25 3 -0.46 -33.695088861171655 8.303849584229457 -40.13237826348001 0 0 0
76 26 1 0 34.95111522948226 -2.9229505339549444 29.918389572050526 0 0 0
77 26 2 0.46 34.18166117698878 -3.686581121495259 29.03249522909862 0 0 0
78 26 3 -0.46 35.8446020340736 -3.991018110598839 30.063002786326393 0 0 0
79 27 1 0 -49.604379912348186 31.199553793144553 10.849314290473368 0 0 0
80 27 2 0.46 -48.57080105804921 30.259700408244097 10.94091323608508 0 0 0
81 27 3 -0.46 -48.76959015548955 32.17243301667008 11.412014990913908 0 0 0
82 28 1 0 -40.17646057563312 -32.23694772129605 5.286305838015112 0 0 0
83 28 2 0.46 -39.833036790971036 -31.22101573466646 4.386337892657487 0 0 0
84 28 3 -0.46 -41.00975677284308 -31.346358233756977 5.973668778826086 0 0 0
85 29 1 0 -10.659014854239041 25.917849781278786 16.338610441058787 0 0 0
86 29 2 0.46 -10.683862308360453 27.30678171224345 16.512537710831126 0 0 0
87 29 3 -0.46 -11.82866884088912 25.80168787336982 17.09914706914748 0 0 0
88 30 1 0 -28.062189656397948 -18.39337661650937 21.103214838250384 0 0 0
89 30 2 0.46 -26.974521013533757 -17.76873870964431 20.481278821736467 0 0 0
90 30 3 -0.46 -28.26062641707802 -19.182306046289945 19.963823243215167 0 0 0
91 31 1 0 -34.473568229685995 -29.002755615729967 -2.650301177491517 0 0 0
92 31 2 0.46 -33.764350596189516 -28.840566314781228 -1.4541803729757659 0 0 0
93 31 3 -0.46 -34.916476400678675 -27.67725076589174 -2.5674202682104563 0 0 0
94 32 1 0 42.27036324569165 27.514638425601238 -12.290519713552872 0 0 0
95 32 2 0.46 42.59151220696209 26.443926173174194 -11.447644505009206 0 0 0
96 32 3 -0.46 41.442343481498625 28.049061700229423 -11.29614803573747 0 0 0
97 33 1 0 -20.32970965330258 12.341826575249323 -0.6202834120762206 0 0 0
98 33 2 0.46 -20.943033035988865 12.241735157579775 -1.8748017006472375 0 0 0
99 33 3 -0.46 -21.584657847179315 12.285621802983886 -0.0022655690812816154 0 0 0
100 34 1 0 -0.046821849717841174 -42.05775829381552 47.749642916647566 0 0 0
101 34 2 0.46 0.8355600855863591 -40.99777067311314 47.99011820478864 0 0 0
102 34 3 -0.46 -0.7234163589843908 -41.27968624162747 46.802635128065944 0 0 0
103 35 1 0 13.778280174839235 28.47208216666094 31.03150505639281 0 0 0
104 35 2 0.46 15.106734831293386 28.173979137875904 31.357607509579644 0 0 0
105 35 3 -0.46 14.070806138707042 29.83992001572047 31.090226254808808 0 0 0
106 36 1 0 -23.342017140272553 32.90095541526575 -7.686140094019137 0 0 0
107 36 2 0.46 -23.39545963836492 31.65233087925231 -8.31707643586582 0 0 0
108 36 3 -0.46 -23.772485251727645 32.31486935900904 -6.489812237751574 0 0 0
109 37 1 0 19.305153396913827 48.957159951245444 -28.378228912506025 0 0 0
110 37 2 0.46 19.465304542787315 50.092506184278015 -27.574898008323842 0 0 0
111 37 3 -0.46 20.623469624302334 49.09090207081504 -28.83006446893907 0 0 0
112 38 1 0 -47.46371717428971 -48.600736713255486 -29.33721328795227 0 0 0
113 38 2 0.46 -47.02166881726471 -49.874664732756216 -28.960781818515336 0 0 0
114 38 3 -0.46 -46.26553118867777 -48.38964671656459 -30.02988301962832 0 0 0
115 39 1 0 36.05938730995359 -43.87256569147223 21.065753625527734 0 0 0
116 39 2 0.46 36.7660454475692 -43.404067543592596 22.179819944009267 0 0 0
117 39 3 -0.46 34.95025682545826 -43.10854560285347 21.447987680198594 0 0 0
118 40 1 0 4.246496204478137 -43.82311283626144 30.604351651695602 0 0 0
119 40 2 0.46 5.404059630222214 -43.45103492414772 31.298329275756156 0 0 0
120 40 3 -0.46 3.971045282060122 -42.47588284673893 30.341486392160885 0 0 0
121 41 1 0 37.83006582363511 27.082862893074378 -15.931108547878202 0 0 0
122 41 2 0.46 38.841088597300654 27.127581322258596 -16.898493276525972 0 0 0
123 41 3 -0.46 38.35703866676697 28.230780804062956 -15.327300555025225 0 0 0
124 42 1 0 -9.555616278633325 32.54679952864918 37.03412827783219 0 0 0
125 42 2 0.46 -9.352287548380227 33.86102642943622 36.59656104791049 0 0 0
126 42 3 -0.46 -10.606345426778308 32.40496556190516 36.11987919628156 0 0 0
127 43 1 0 -34.17629426643305 -26.143433279329685 -49.05292344870419 0 0 0
128 43 2 0.46 -33.43643085909341 -26.035405271834374 -47.86931367851962 0 0 0
129 43 3 -0.46 -35.10679663481782 -25.22338755519381 -48.55524764265207 0 0 0
130 44 1 0 -24.60932698185891 -12.447204774221534 24.219100870001423 0 0 0
131 44 2 0.46 -25.18625881701784 -13.115916274185498 25.3053672219594 0 0 0
132 44 3 -0.46 -25.030167517977254 -13.47287531697064 23.364177960671945 0 0 0
133 45 1 0 -33.86403588701459 39.7048209125791 39.0861117478593 0 0 0
134 45 2 0.46 -33.292954519685665 40.299069959103804 40.21780699950358 0 0 0
135 45 3 -0.46 -33.216026449525444 38.501806543297256 39.390808640239904 0 0 0
136 46 1 0 -37.10311159836415 -42.7800531227293 -19.791880408389684 0 0 0
137 46 2 0.46 -36.123198769815566 -43.46788661202332 -19.066169763951052 0 0 0
138 46 3 -0.46 -36.68175308409577 -41.57450265956658 -19.218203597614057 0 0 0
139 47 1 0 51.285284785601995 -20.55654171304395 12.58085775853616 0 0 0
140 47 2 0.46 -49.840939823765105 -21.902175486615988 12.853468805462123 1 0 0
141 47 3 -0.46 51.197916610830646 -20.851030977342127 11.214972377089296 0 0 0
142 48 1 0 30.450420439372596 48.90906441121191 35.65989604434843 0 0 0
143 48 2 0.46 31.577063226595367 49.54303138064948 36.19726175935176 0 0 0
144 48 3 -0.46 29.999961224372598 48.61417616145422 36.95223014038413 0 0 0
145 49 1 0 51.17747906616484 -8.175056597343545 -33.318951282091525 0 0 0
146 49 2 0.46 49.99808971605408 -7.46241837955848 -33.07159014650743 0 0 0
147 49 3 -0.46 50.96859258321569 -8.042456163733101 -34.69691483830317 0 0 0
148 50 1 0 34.408833602078516 -44.35189341693095 -10.182248988059406 0 0 0
149 50 2 0.46 35.69956361016105 -44.65259306669273 -9.731033111933133 0 0 0
150 50 3 -0.46 34.5359619220119 -43.05154415277632 -9.679327342588225 0 0 0
151 51 1 0 21.01313861894782 -27.167331808026333 8.847361259044236 0 0 0
152 51 2 0.46 22.38729493317944 -26.90106540900724 8.875585872607294 0 0 0
153 51 3 -0.46 20.758221198364545 -25.821211267328493 8.559304669821685 0 0 0
154 52 1 0 -35.3271229008261 -35.83842909962579 12.26600297029142 0 0 0
155 52 2 0.46 -33.929854201936266 -35.762593705396874 12.222538317010317 0 0 0
156 52 3 -0.46 -35.400906094520025 -34.44187392004842 12.330730636122615 0 0 0
157 53 1 0 -24.878635821130406 42.21823702338316 -28.642106864108527 0 0 0
158 53 2 0.46 -25.004520261685812 42.03415598591113 -30.02423105508026 0 0 0
159 53 3 -0.46 -26.272122134489802 42.18660872835202 -28.51097507759791 0 0 0
160 54 1 0 39.22812315223488 -5.1849066671919575 -36.872253048974656 0 0 0
161 54 2 0.46 38.16024318811872 -4.7026207465205925 -36.106072474330894 0 0 0
162 54 3 -0.46 40.13179928687272 -4.688775793685044 -35.92503417245282 0 0 0
163 55 1 0 12.313669593083722 -39.35437067683836 -30.08842052822808 0 0 0
164 55 2 0.46 13.596305317718508 -39.61495757775654 -30.585351172242365 0 0 0
165 55 3 -0.46 11.983910338792871 -38.701281800485994 -31.282042643386117 0 0 0
166 56 1 0 -18.69664607179605 -37.93194698227849 1.9278836285852294 0 0 0
167 56 2 0.46 -17.51281593254187 -37.32133450124363 2.3588112320151815 0 0 0
168 56 3 -0.46 -18.78348564067853 -37.01778830805148 0.8711089091621054 0 0 0
169 57 1 0 -9.750409839653413 7.780873115604475 -25.532344449116678 0 0 0
170 57 2 0.46 -8.355671689356276 7.740647608892306 -25.646744627068774 0 0 0
171 57 3 -0.46 -9.71121473010356 9.180252358946873 -25.54653869759382 0 0 0
172 58 1 0 -41.916124876149865 -38.376316693073754 -40.390387610936344 0 0 0
173 58 2 0.46 -40.51613367550252 -38.37394801176266 -40.39474965849017 0 0 0
174 58 3 -0.46 -41.91844809789631 -36.97639426021787 -40.37583478895583 0 0 0
175 59 1 0 11.123392688547064 42.922646939801645 -17.195971318400257 0 0 0
176 59 2 0.46 12.361357760082226 42.44407335965338 -17.64140347938889 0 0 0
177 59 3 -0.46 11.075395567700328 43.80737615204637 -18.279922653742968 0 0 0
178 60 1 0 16.550370123694364 -14.935876856693955 40.00544918405198 0 0 0
179 60 2 0.46 17.950345341091804 -14.94148142925605 39.99928643796076 0 0 0
180 60 3 -0.46 16.555998210668417 -13.535898348734857 40.01078790015545 0 0 0
181 61 1 0 6.414072728906055 3.796130228448378 29.891224839738793 0 0 0
182 61 2 0.46 7.808031683843625 3.924653504780144 29.87224592010925 0 0 0
183 61 3 -0.46 6.2858334031791125 5.190088582159127 29.9120763014889 0 0 0
184 62 1 0 29.35764982134267 46.49274769117706 49.37903589256381 0 0 0
185 62 2 0.46 29.394693051554082 47.161429591396335 48.149608255240395 0 0 0
186 62 3 -0.46 30.577884635373575 47.07955421615129 49.73496439784912 0 0 0
187 63 1 0 36.58923283563102 47.06167054415943 18.361392556212518 0 0 0
188 63 2 0.46 37.64730057057289 47.4432565765097 17.52779507049764 0 0 0
189 63 3 -0.46 37.08468141690485 45.75260486779219 18.391019541731183 0 0 0
190 64 1 0 -0.4937431765684557 26.42591202478498 20.79932734695869 0 0 0
191 64 2 0.46 0.03007277619871196 25.14809808435027 20.569526604450456 0 0 0
192 64 3 -0.46 0.30574347381374234 26.548135264016473 21.942079540416405 0 0 0
193 65 1 0 -11.941260834475631 34.055622909050705 12.22502649849756 0 0 0
194 65 2 0.46 -12.623477164025594 32.989121918976856 11.627400764557933 0 0 0
195 65 3 -0.46 -11.465282928778027 33.19353038934832 13.220135296951735 0 0 0
196 66 1 0 4.132754797771061 47.46907554332772 -8.602175037945724 0 0 0
197 66 2 0.46 5.531034127314296 47.435254874664885 -8.541585608642253 0 0 0
198 66 3 -0.46 4.173181623915517 48.85968663978204 -8.758911919840175 0 0 0
199 67 1 0 -28.91897495444429 20.6850700312319 41.139697740947746 0 0 0
200 67 2 0.46 -29.035303160649576 21.954765962967187 41.71791914264083 0 0 0
201 67 3 -0.46 -27.76132035083475 21.09674714346984 40.46861073168511 0 0 0
202 68 1 0 -41.9905088232627 -7.041461465404031 -22.161097183830123 0 0 0
203 68 2 0.46 -43.21894589682957 -6.997926728605538 -21.490987429403006 0 0 0
204 68 3 -0.46 -42.44790901144166 -6.072847696650974 -23.062525181418312 0 0 0
205 69 1 0 31.00409033817952 26.737298343095155 31.56004041564534 0 0 0
206 69 2 0.46 32.145490769421045 27.539664724967448 31.675855979378525 0 0 0
207 69 3 -0.46 30.213372438373515 27.883284118303973 31.41347368700124 0 0 0
208 70 1 0 -32.2102654377688 -46.25211794890795 5.490469585391797 0 0 0
209 70 2 0.46 -32.1937433689893 -46.38804303080717 6.883757564724834 0 0 0
210 70 3 -0.46 -33.35983354635669 -45.45826782047403 5.581547229756914 0 0 0
211 71 1 0 19.648175016239012 11.346242199890268 7.354810684123631 0 0 0
212 71 2 0.46 19.685482913317077 10.406049960757583 6.318159019247584 0 0 0
213 71 3 -0.46 19.275082021794027 10.340070181145581 8.25393219214761 0 0 0
214 72 1 0 35.90971507213958 -24.574189858416744 9.67533505584083 0 0 0
215 72 2 0.46 36.92755234345698 -23.619120556250476 9.784192380705994 0 0 0
216 72 3 -0.46 35.70203740910744 -24.510500785530468 11.058380134741872 0 0 0
217 73 1 0 -19.691756468614667 -40.159079778451 -38.661263471159856 0 0 0
218 73 2 0.46 -19.653718420723507 -41.553205025990046 -38.78360684485392 0 0 0
219 73 3 -0.46 -19.88335820333124 -40.28550369038329 -37.28021105732998 0 0 0
220 74 1 0 -40.76247158574835 -33.79967862006267 17.912464515356742 0 0 0
221 74 2 0.46 -39.49323756099869 -33.62134457305748 18.475706877130555 0 0 0
222 74 3 -0.46 -41.16204407780173 -32.55742179803743 18.41955406536344 0 0 0
223 75 1 0 37.13092887160252 -4.477670425831874 -41.34739369289167 0 0 0
224 75 2 0.46 37.49968859036756 -5.804102535129806 -41.60154744407344 0 0 0
225 75 3 -0.46 36.73568149015416 -4.331738687259952 -42.68249048156865 0 0 0
226 76 1 0 40.96847684012681 -26.31826468030491 6.98801576426169 0 0 0
227 76 2 0.46 42.225300689881 -26.07178692672288 7.553385137042188 0 0 0
228 76 3 -0.46 40.58499315266369 -27.011084733639304 8.142546246816142 0 0 0
229 77 1 0 37.09461689853105 35.768295225210856 -6.369304108346412 0 0 0
230 77 2 0.46 36.89599124089863 36.41728553490674 -7.593787438592655 0 0 0
231 77 3 -0.46 35.7721356493243 36.04927682806686 -6.005858535594428 0 0 0
232 78 1 0 -41.996899282316555 29.522296441760997 18.653741054550412 0 0 0
233 78 2 0.46 -41.46975243845756 28.5502844982077 19.51240803691275 0 0 0
234 78 3 -0.46 -42.08469635503267 30.420308975295036 19.724191970584517 0 0 0
235 79 1 0 -34.87554747228661 -10.890318124259974 -44.228538454290096 0 0 0
236 79 2 0.46 -34.253312708619816 -9.64574315775228 -44.38299573520266 0 0 0
237 79 3 -0.46 -33.968037195653665 -11.218146563464288 -43.21416494701852 0 0 0
238 80 1 0 5.573981511261669 -7.281855667474642 21.09747516542513 0 0 0
239 80 2 0.46 6.956753003696358 -7.125306631023953 20.94438891883092 0 0 0
240 80 3 -0.46 5.405083685570524 -5.896341418379758 20.988737913152303 0 0 0
241 81 1 0 -10.848864095648397 50.992630445575884 -4.3779298140814555 0 -1 0
242 81 2 0.46 -9.448892701650092 50.98590972017407 -4.383839791790013 0 -1 0
243 81 3 -0.46 -10.84215091059941 -49.007386805810064 -4.37972890538587 0 0 0
244 82 1 0 33.10329721743354 12.074759245722923 29.209791680373083 0 0 0
245 82 2 0.46 34.27100505115891 12.593716661081324 29.781754630310356 0 0 0
246 82 3 -0.46 32.719077454545435 13.364530871663696 28.823962279310514 0 0 0
247 83 1 0 10.090242924880208 26.799466821377646 35.716992094350466 0 0 0
248 83 2 0.46 9.951112959668997 25.67876349517971 34.8895460795379 0 0 0
249 83 3 -0.46 10.552053119603292 27.54690247412788 34.62700526459166 0 0 0
250 84 1 0 -24.365978935653587 -19.60302313126123 40.40929942193947 0 0 0
251 84 2 0.46 -23.03450479766736 -19.471934610231877 39.996998052152556 0 0 0
252 84 3 -0.46 -24.403723661418766 -18.23872564880467 40.72117714643997 0 0 0
253 85 1 0 49.28454592080294 19.285405498850395 -48.1316342753887 0 0 0
254 85 2 0.46 49.82215516019763 18.01281833771668 -48.3585664745917 0 0 0
255 85 3 -0.46 50.200631108430564 19.833883931981646 -49.037150336758764 0 0 0
256 86 1 0 15.314120900341894 -30.886390996215912 49.46480079748574 0 0 0
257 86 2 0.46 15.037415390963563 -30.47581897925187 48.155272378563204 0 0 0
258 86 3 -0.46 14.33126399797657 -30.01332806167937 49.946208547538944 0 0 0
259 87 1 0 -14.089102463674338 -15.839172798588315 6.8654217591564075 0 0 0
260 87 2 0.46 -12.69526262962979 -15.779613223449667 6.7485321786114705 0 0 0
261 87 3 -0.46 -14.141252910994464 -14.443012224381901 6.954953775083251 0 0 0
262 88 1 0 24.487341874261247 -35.363301523627975 37.68810203996697 0 0 0
263 88 2 0.46 25.863713184143272 -35.530581739877135 37.494144965888026 0 0 0
264 88 3 -0.46 24.48485820496665 -34.31189925717549 36.76368486926675 0 0 0
265 89 1 0 30.413425490272033 10.033972211104395 48.035940409872055 0 0 0
266 89 2 0.46 31.739593723912837 10.009018474835917 48.483885860935324 0 0 0
267 89 3 -0.46 30.283834115017708 11.350913221445309 48.49296606641877 0 0 0
268 90 1 0 5.4570717670196585 -44.919618918151606 20.988092896758232 0 0 0
269 90 2 0.46 6.443913131196122 -44.24596697999993 21.71770730737169 0 0 0
270 90 3 -0.46 4.525855099509245 -43.93457233741895 21.338119684215552 0 0 0
271 91 1 0 46.03665929834773 11.703971583755058 22.309330693155577 0 0 0
272 91 2 0.46 46.032497181193904 11.364496863307206 23.667542602600363 0 0 0
273 91 3 -0.46 47.426851790923244 11.542533255527184 22.27324053153691 0 0 0
274 92 1 0 -1.7178275135356873 40.46220563655092 7.414190015598058 0 0 0
275 92 2 0.46 -1.6703488608322945 41.43163817676312 8.423123277769138 0 0 0
276 92 3 -0.46 -1.1110779764149594 39.5382825775418 8.273388002231536 0 0 0
277 93 1 0 20.461354521481162 11.794787821517522 -46.35108465877297 0 0 0
278 93 2 0.46 20.21789327498491 11.077485260949373 -47.52845616261399 0 0 0
279 93 3 -0.46 20.300623352047523 10.622119985104627 -45.60341117615158 0 0 0
280 94 1 0 -46.56763235616184 -43.37102171101289 -16.370316911649716 0 0 0
281 94 2 0.46 -46.31906008822449 -43.12568986608406 -15.014579432092447 0 0 0
282 94 3 -0.46 -47.77267336656088 -42.66447301244977 -16.27723039374726 0 0 0
283 95 1 0 -49.59839797710257 41.395625703553414 -22.400372292406146 0 0 0
284 95 2 0.46 -48.75005932108358 41.037447074465085 -21.34584415415269 0 0 0
285 95 3 -0.46 -49.49941719927212 42.7402484406646 -22.02328808368917 0 0 0
286 96 1 0 -38.657654635644775 35.72098166367799 27.06006820848112 0 0 0
287 96 2 0.46 -37.55636562567837 35.444166196508796 27.87893065948441 0 0 0
288 96 3 -0.46 -38.67548977386083 37.03969080259634 27.529842744591825 0 0 0
289 97 1 0 28.167396262384408 -32.723075690070594 3.5418079202265424 0 0 0
290 97 2 0.46 28.060382705372678 -31.4564828115025 2.955045124391395 0 0 0
291 97 3 -0.46 26.77154305827928 -32.815149905256504 3.59763059919627 0 0 0
292 98 1 0 28.33410798160686 8.30224716261852 39.810445593732055 0 0 0
293 98 2 0.46 29.479047893322342 7.7864150844203515 40.42933966032399 0 0 0
294 98 3 -0.46 29.13914769406745 9.077421879328416 38.96722840941054 0 0 0
295 99 1 0 34.745024654364556 -32.305305691225485 -33.039182624418494 0 0 0
296 99 2 0.46 34.2784141887308 -32.57009765189661 -31.746062409231605 0 0 0
297 99 3 -0.46 33.48727244103116 -31.80004434302273 -33.38956861139184 0 0 0
298 100 1 0 -13.304231075663656 -41.120878531769314 9.441759584568201 0 0 0
299 100 2 0.46 -11.904498246945119 -41.14715456589691 9.434171552008628 0 0 0
300 100 3 -0.46 -13.277960101946356 -39.72112540054514 9.440755807675384 0 0 0
301 101 1 0 -11.156611411805041 -23.587270830388714 -41.19061160113283 0 0 0
302 101 2 0.46 -10.44661700656368 -22.510774235690974 -41.73564648637425 0 0 0
303 101 3 -0.46 -9.98444640102421 -24.352644470928915 -41.17536765586233 0 0 0
304 102 1 0 -14.284647917394771 20.465858333363006 -19.38678493475807 0 0 0
305 102 2 0.46 -12.89882939522882 20.320464895207284 -19.52231268749912 0 0 0
306 102 3 -0.46 -14.151963893928222 21.853318254855616 -19.51850401526066 0 0 0
307 103 1 0 -21.119307320940653 16.353936323639708 -24.384029600686034 0 0 0
308 103 2 0.46 -20.210395377118495 16.837277536631486 -25.332850105418654 0 0 0
309 103 3 -0.46 -20.097077902705994 16.30722907981608 -23.42858967590268 0 0 0
310 104 1 0 0.29539685373505087 4.852204850202604 39.70679306962798 0 0 0
311 104 2 0.46 0.6284274870212209 5.701109910647473 40.76907871654415 0 0 0
312 104 3 -0.46 -0.7958404696874579 5.671606292437007 39.39409132605456 0 0 0
313 105 1 0 -26.840993038741363 -20.815231221355187 31.6527093872601 0 0 0
314 105 2 0.46 -27.42433706925738 -20.97475708997189 30.390068805264015 0 0 0
315 105 3 -0.46 -25.828863110507285 -21.71543511954108 31.298836599292724 0 0 0
316 106 1 0 -13.971141519955365 44.49869542679929 -11.2468809858844 0 0 0
317 106 2 0.46 -15.348751993118386 44.36883946364952 -11.45978193249105 0 0 0
318 106 3 -0.46 -13.73082379588093 44.12665350841634 -12.574974432318655 0 0 0
319 107 1 0 49.57246016435384 25.440178889760798 48.07171736326365 0 0 0
320 107 2 0.46 49.65643406857813 25.58654931629098 46.681924543579115 0 0 0
321 107 3 -0.46 50.423546170773676 26.539136875108518 48.23888182155792 0 0 0
322 108 1 0 -9.67490078635106 -22.652986493743036 -7.371298481388499 0 0 0
323 108 2 0.46 -9.013760179858371 -21.83493970304302 -6.44734364121941 0 0 0
324 108 3 -0.46 -10.600106731214625 -21.630764409289593 -7.614312821798239 0 0 0
325 109 1 0 -32.73108535914991 -26.71651440995365 37.864279775158096 0 0 0
326 109 2 0.46 -31.337624324653703 -26.691481506481367 37.99709430404898 0 0 0
327 109 3 -0.46 -32.75042079528405 -25.31796610966836 37.80354434333587 0 0 0
328 110 1 0 39.27766184943065 16.321376528612753 -20.484642484307653 0 0 0
329 110 2 0.46 40.178197848404864 17.11472420852158 -21.205499178342457 0 0 0
330 110 3 -0.46 38.647389597268464 17.474802074876713 -20.002598505629273 0 0 0
331 111 1 0 -21.34612189997059 22.234480666505558 13.851942871203471 0 0 0
332 111 2 0.46 -22.174861911263054 22.0001058265796 12.748195423599334 0 0 0
333 111 3 -0.46 -22.17634061975421 21.433701894025454 14.645347077687218 0 0 0
334 112 1 0 -37.803798711907355 -45.115665048529124 38.05690655885751 0 0 0
335 112 2 0.46 -38.631645817366355 -44.08315062329492 38.51361558183214 0 0 0
336 112 3 -0.46 -38.26938743138615 -44.91194713846897 36.75240429461463 0 0 0
337 113 1 0 -48.49187163440922 -21.550297612942202 33.43075094489978 0 0 0
338 113 2 0.46 -49.446140787525565 -20.52672070919119 33.38999919011425 0 0 0
339 113 3 -0.46 -48.43692848293535 -21.55476983024456 32.03183663395056 0 0 0
340 114 1 0 4.094071749380526 -34.627213683644456 -27.729884518241523 0 0 0
341 114 2 0.46 4.540102554293967 -34.115602905355914 -28.954348046733596 0 0 0
342 114 3 -0.46 3.6133587608694935 -35.76896762026956 -28.382044752292845 0 0 0
343 115 1 0 -13.195931437954187 36.407459587565846 3.1627280167898904 0 0 0
344 115 2 0.46 -14.560028496074228 36.35835903474077 2.851555473430871 0 0 0
345 115 3 -0.46 -12.961390469525098 35.32594885395584 2.3052170447232365 0 0 0
346 116 1 0 -30.048781865243647 -35.19753780001363 -49.98412766955214 0 0 1
347 116 2 0.46 -28.968583001445225 -34.30999869536701 49.94208376513 0 0 0
348 116 3 -0.46 -29.368950462025715 -36.094193210643056 49.18290274049411 0 0 0
349 117 1 0 -37.57623675217301 37.39683799815569 45.52012509318109 0 0 0
350 117 2 0.46 -36.68340530177975 38.08872598077282 46.34725447888726 0 0 0
351 117 3 -0.46 -37.89660074774156 36.541667944761244 46.58128063791556 0 0 0
352 118 1 0 -38.22316755791093 46.34736767765817 -44.98851368037995 0 0 0
353 118 2 0.46 -39.341852601669046 45.89756781237448 -44.2770195805712 0 0 0
354 118 3 -0.46 -38.716387370784325 45.73870167710061 -46.14879809204564 0 0 0
355 119 1 0 -11.483019818069847 -9.376863780340074 -6.789150840276259 0 0 0
356 119 2 0.46 -10.367774454076862 -10.106481590778703 -6.360331963846018 0 0 0
357 119 3 -0.46 -12.105467210667738 -9.603396291319582 -5.555764337626985 0 0 0
358 120 1 0 -24.031875764674 28.05287941636486 20.44740943024474 0 0 0
359 120 2 0.46 -24.13982075753314 28.237369152890146 21.830995862540703 0 0 0
360 120 3 -0.46 -25.415954499845082 27.859023798917768 20.365275062094575 0 0 0
361 121 1 0 39.92122160278098 13.302874030526711 -6.241750833065825 0 0 0
362 121 2 0.46 41.171458486097336 13.536224784969464 -6.8269475188018305 0 0 0
363 121 3 -0.46 39.81544757734368 14.66258737750702 -5.925536555104832 0 0 0
364 122 1 0 -15.444788002178042 14.94196896817893 -28.521883631323014 0 0 0
365 122 2 0.46 -15.293596418441961 14.798498908920067 -27.137485766869435 0 0 0
366 122 3 -0.46 -14.380994624411676 14.055922275528795 -28.72988581367739 0 0 0
367 123 1 0 -12.960882993956172 -31.521119279842654 12.601758831161487 0 0 0
368 123 2 0.46 -13.970670866042845 -30.839058841795215 13.291049780062753 0 0 0
369 123 3 -0.46 -13.037692857715339 -32.56940650350643 13.526525905365903 0 0 0
370 124 1 0 11.082139889544054 35.92055193400451 1.9096458453474678 0 0 0
371 124 2 0.46 12.421762760112376 35.74387173992021 2.275971757164557 0 0 0
372 124 3 -0.46 11.19983748410956 37.296004530630555 2.142621017132271 0 0 0
373 125 1 0 31.17139882928584 -36.30683333228095 -17.98782888248146 0 0 0
374 125 2 0.46 30.19894461535656 -37.31379215808998 -17.96867881886606 0 0 0
375 125 3 -0.46 31.800147705551662 -36.93461319778658 -19.069756463727167 0 0 0
376 126 1 0 -15.6779589669498 -4.902974804080886 -26.946139804925142 0 0 0
377 126 2 0.46 -15.457973086367664 -6.159311251558756 -27.523396197772538 0 0 0
378 126 3 -0.46 -16.629527504009726 -4.616493942446167 -27.932266589468927 0 0 0
379 127 1 0 22.482210319878174 50.104551905233386 47.485250302037265 0 0 0
380 127 2 0.46 21.48431054872464 50.04359970383341 48.46529156437075 0 0 0
381 127 3 -0.46 22.160663831025317 -49.95490495921232 47.241217604997175 0 1 0
382 128 1 0 25.568907724438244 -23.206469337954015 -15.58081545561794 0 0 0
383 128 2 0.46 25.516051039706884 -22.642768560005333 -16.86122461046621 0 0 0
384 128 3 -0.46 24.440844131619627 -23.98149298424885 -15.875452313870637 0 0 0
385 129 1 0 7.525554260286789 -2.9803009512538945 31.90268480844485 0 0 0
386 129 2 0.46 8.874638145139786 -2.7447700003174207 31.6119996819232 0 0 0
387 129 3 -0.46 7.400664588386909 -1.6714340254931157 32.3835901426867 0 0 0
388 130 1 0 30.55301099788042 -43.24584042053172 32.1217238293352 0 0 0
389 130 2 0.46 31.52736765931334 -42.800965305609665 31.22021663111415 0 0 0
390 130 3 -0.46 29.749692545858352 -42.14648457722361 31.795999721499793 0 0 0
391 131 1 0 45.70525734440204 47.0214161934636 -20.37658633319273 0 0 0
392 131 2 0.46 44.38012592865825 46.697208560802025 -20.062076966189377 0 0 0
393 131 3 -0.46 45.9960341004523 45.66317187200692 -20.551575593924827 0 0 0
394 132 1 0 -38.63286127977568 38.30962828203749 3.9745161065472763 0 0 0