ITEM: TIMESTEP
1000000
ITEM: NUMBER OF ATOMS
40000
ITEM: BOX BOUNDS pp pp pp
37.3726 142.627
75.2242 134.119
13.4545 570.358
ITEM: ATOMS id type x y z fx fy fz 
1 1 109.037 84.4264 568.887 -0.283761 -1.08098 0.905417 
2 2 109.623 82.9158 566.661 0.0559476 -3.68071 1.41251 
3 3 112.719 83.1929 564.292 1.34162 -4.05838 1.09828 
4 4 115.381 82.2914 562.354 4.54916 2.11354 4.35627 
5 5 116.676 83.04 558.54 2.91939 0.245463 1.35131 
6 1 134.778 88.2639 105.915 0.92137 0.0618345 1.71532 
7 2 135.048 88.0727 109.375 0.380191 2.91555 0.684252 
8 3 135.48 85.3031 112.387 1.55581 -0.461931 2.16802 
9 4 136.543 85.1333 116.789 -2.86192 2.15895 -3.17935 
10 5 133.962 84.5588 119.753 0.127655 -0.111827 0.529884 
11 1 103.327 97.8717 95.5231 -0.978724 -0.509063 -0.607144 
12 2 101.594 95.6576 96.7418 0.0479081 -0.616322 -1.78839 
13 3 100.149 95.3308 99.8938 -1.94419 3.85088 0.119328 
14 4 99.2353 98.6237 102.659 1.2877 -0.196073 -2.85657 
15 5 98.4005 102.51 102.779 -1.54837 0.527065 1.42939 
16 1 53.9559 110.238 539.094 4.16851 5.9555 -1.73511 
17 2 56.8596 109.685 538.09 -1.69915 -0.100807 3.27797 
18 3 59.7615 109.963 536.411 1.72768 0.110456 -0.511224 
19 4 61.9189 107.524 534.281 -0.748192 0.813712 -1.09878 
20 5 60.9978 108.592 530.292 2.52934 0.761567 1.61211 
21 1 135.501 123.092 527.606 -0.7654 0.464911 1.62207 
22 2 137.003 122.932 525.336 4.62574 1.93924 -0.139131 
23 3 140.59 124.098 524.217 -1.47307 -1.77801 -1.61363 
24 4 141.99 124.271 521.012 3.38932 1.84347 0.719065 
25 5 39.8832 126.456 519.812 0.0650618 -1.57554 -0.728458 
26 1 82.3228 101.151 21.9837 0.606871 2.18921 0.666079 
27 2 84.7762 101.076 20.5114 0.422504 -0.592056 0.896968 
28 3 84.5156 98.1553 18.4773 -9.46067 -2.21628 4.32065 
29 4 82.0639 98.2528 16.3577 -2.39685 -1.58127 -0.789942 
30 5 82.5173 97.5504 569.604 3.42756 3.32535 2.9502 
31 1 97.1594 95.7722 37.8678 -0.984108 -2.73091 2.2648 
32 2 95.9943 96.2044 40.9076 0.357515 -2.19029 -2.95534 
33 3 96.6092 96.6436 44.2474 6.15298 1.95615 2.47709 
34 4 96.957 99.8325 47.2297 -1.7434 -1.41596 -4.16601 
35 5 97.3268 100.417 49.9666 2.98782 0.708322 2.77341 
36 1 123.767 132.665 81.2531 -0.418919 1.79775 -1.41285 
37 2 124.06 132.411 83.9338 -1.96767 -0.16677 1.95434 
38 3 123.249 129.649 86.9737 0.0393251 4.09899 -0.349433 
39 4 123.059 126.92 88.703 2.66088 -0.793028 2.76479 
40 5 121.432 124.168 89.9784 -1.55888 3.56766 0.00114089 
41 1 62.355 86.7837 15.2752 -0.635381 0.750151 -0.0601204 
42 2 61.5074 86.4221 569.973 -1.14174 -1.25784 -0.665519 
43 3 62.4976 84.6998 567.336 -0.216414 -2.49143 -0.435072 
44 4 64.2386 82.9078 564.27 -0.0270462 4.00075 1.64231 
45 5 67.3731 83.4447 562.973 1.00984 3.52429 -3.27765 
46 1 58.9083 122.807 44.5197 0.824276 2.34361 -0.274448 
47 2 59.0518 125.208 45.8023 0.688124 0.665798 0.654768 
48 3 58.3492 125.15 49.488 -6.80906 -1.26231 0.99246 
49 4 56.4761 123.235 52.743 1.62361 -0.716276 -8.77068 
50 5 55.7773 119.848 52.754 1.19118 -1.21203 1.56611 
51 1 95.7271 120.241 37.2553 -1.19672 -0.0305742 3.50473 
52 2 95.6181 118.001 39.6401 1.2959 3.82618 -1.24418 
53 3 94.4503 118.977 43.1724 1.69263 -0.857034 -3.30621 
54 4 92.2608 121.478 43.7754 -3.7805 -2.36098 0.89962 
55 5 89.3418 121.628 44.637 1.72342 -0.424629 -1.09817 
56 1 77.0329 116.519 51.4523 -0.517939 3.56531 0.806693 
57 2 79.3026 117.001 49.7513 -1.26172 0.836979 -10.0681 
58 3 80.584 119.11 46.5783 2.22034 -0.349121 -3.16346 
59 4 80.413 121.861 42.9403 0.437207 3.80246 3.93546 
60 5 79.1818 122.288 39.7651 -0.328794 -1.33867 -0.684998 
61 1 83.7364 103.588 53.6762 1.51825 1.9743 -1.23755 
62 2 84.5221 105.48 50.6736 -2.17382 -0.282263 3.47646 
63 3 85.513 103.401 48.162 0.331388 0.590704 -0.821081 
64 4 87.4024 102.119 45.6769 -0.715502 -0.245266 -0.813231 
65 5 88.437 98.8177 44.3921 1.53051 -1.28431 -0.347258 
66 1 85.3745 85.1083 57.2239 0.584025 6.5276 3.54105 
67 2 84.9893 88.0077 58.1889 -1.77655 -2.54015 -2.76896 
68 3 83.2057 88.1229 61.4801 0.923689 -3.11857 2.9876 
69 4 81.8026 84.6358 64 0.831319 0.250141 1.59101 
70 5 81.4326 80.2174 65.2123 -0.758431 1.17346 -0.430467 
71 1 96.4967 131.8 537.541 -1.27134 -1.2947 1.43366 
72 2 95.9392 133.008 539.888 0.711426 -0.944746 0.15957 
73 3 93.6719 76.0506 540.521 -1.2203 0.583556 0.545803 
74 4 92.1212 77.8807 543.145 -0.570355 3.73014 -4.56466 
75 5 88.5845 79.0034 543.612 0.804549 0.449401 0.071538 
76 1 118.005 91.9151 101.638 1.38902 0.553289 -0.00172024 
77 2 117.06 90.9023 103.839 -1.96822 1.84355 0.0900603 
78 3 114.561 92.9429 106.6 2.73395 -1.1853 -0.570928 
79 4 111.889 91.2244 107.79 -2.76432 1.65339 2.10702 
80 5 110.138 90.6479 111.269 -0.0100916 5.12678 -3.38891 
81 1 92.542 75.8864 421.927 0.166174 2.42448 -4.46105 
82 2 90.2899 76.6782 423.765 -1.36694 2.23858 0.317283 
83 3 88.3217 134.085 426.742 2.8714 0.387897 0.191103 
84 4 87.0565 77.3511 428.609 0.0509012 2.64685 1.21323 
85 5 87.6657 81.1313 429.407 0.547219 0.887583 0.853039 
86 1 53.9448 120.642 481.114 7.55933 -0.699036 -3.43354 
87 2 53.788 120.876 478.391 0.264924 0.281582 -1.21798 
88 3 56.5381 121.349 475.813 1.02676 -0.45833 -0.153489 
89 4 56.9412 125.18 476.126 -1.04094 -2.28694 -0.523235 
90 5 56.3948 128.002 474.73 -1.01438 3.74022 -0.512942 
91 1 94.8409 102.585 397.256 -2.20668 1.54097 1.52376 
92 2 91.7466 101.422 397.884 2.57944 1.5367 -2.39313 
93 3 91.1397 99.1053 400.017 -1.64317 -0.559721 2.96208 
94 4 87.3928 99.0684 400.641 -0.838437 2.31448 -0.967165 
95 5 83.8737 98.1761 401.927 1.93234 1.53458 -1.12466 
96 1 87.0337 118.855 56.4001 -4.12577 -0.165767 -0.0246805 
97 2 85.4559 118.216 53.1694 -0.893575 -0.968528 6.77384 
98 3 85.6133 115.432 51.2865 -3.44928 1.2128 -4.91757 
99 4 84.8942 116.11 47.1935 1.3727 1.90445 4.96027 
100 5 86.5865 114.436 44.9704 1.47352 -0.865729 -2.83744 
101 1 102.953 81.0874 68.149 -0.415949 2.59314 -0.172277 
102 2 101.942 82.0029 65.9245 -0.731253 0.071433 0.332866 
103 3 102.406 82.4162 62.6813 1.24169 8.88292 -0.592311 
104 4 104.185 84.031 59.5621 0.784615 0.00653829 -0.830614 
105 5 106.955 83.8822 56.6657 -4.05788 2.20905 2.56503 
106 1 71.6768 109.246 549.199 -0.0324428 2.48553 -0.587514 
107 2 72.7275 112.473 547.747 4.07206 -2.77549 0.53682 
108 3 74.5089 114.685 545.214 0.173246 -1.09271 1.25214 
109 4 74.3086 117.516 543.114 0.333729 2.87363 -0.725828 
110 5 75.3877 119.908 540.214 0.537668 1.20065 -0.913066 
111 1 87.6052 114.93 561.397 -0.19938 -1.49761 1.31093 
112 2 85.8313 115.374 563.593 -0.314529 0.941289 -0.579565 
113 3 84.3234 114.295 566.67 0.41964 0.384673 0.147079 
114 4 82.5513 113.749 569.445 -6.49843 -0.870428 -6.09029 
115 5 81.5519 111.083 570.247 -1.12709 -2.11684 -0.417861 
116 1 110.847 93.9408 94.4939 -7.55676 5.82534 -3.01637 
117 2 112.574 94.945 92.6313 1.93569 0.141929 -0.0451477 
118 3 114.741 96.3764 89.8881 0.432139 -0.403954 -1.98247 
119 4 116.404 95.392 86.0325 2.6107 5.04489 -0.863957 
120 5 114.268 93.9462 83.0054 -1.22679 0.320671 -1.9952 
121 1 127.071 122.13 24.9433 0.867141 0.0989994 -2.47688 
122 2 125.403 120.636 26.5857 0.573117 -2.17739 -3.05437 
123 3 122.056 119.139 28.8225 0.810268 0.786016 -8.88397 
124 4 119.047 120.765 28.4283 -4.39122 -1.26338 -0.0481634 
125 5 116.193 123.565 28.2593 0.548515 0.891553 0.843716 
126 1 49.6009 113.244 63.999 -6.17525 -1.35912 -4.2196 
127 2 47.9573 112.144 61.9081 1.43327 -1.33752 -0.439649 
128 3 50.676 109.712 59.5146 -2.08928 2.13506 -0.0211533 
129 4 53.835 110.618 57.9652 0.44581 -0.943736 2.10286 
130 5 55.5726 112.253 55.7878 1.8286 -0.0854445 -3.66958 
131 1 126.842 132.399 522.419 1.60931 -3.02202 0.585471 
132 2 126.883 133.235 519.641 1.75693 -0.633409 -1.08059 
133 3 128.424 76.1745 516.633 0.933293 -0.376647 -2.09815 
134 4 126.867 77.5635 513.266 1.75091 -0.0737678 1.86144 
135 5 125.457 76.389 510.648 -1.69254 -0.779623 -1.54167 
136 1 139.196 105.338 80.2568 -2.56575 -1.4516 2.32162 
137 2 140.766 106.221 78.8123 3.54031 0.506297 -1.66262 
138 3 39.2966 107.849 77.5006 -1.2727 -0.813214 0.310974 
139 4 39.8544 109.479 74.2564 1.76458 6.03954 0.0699149 
140 5 39.6971 113.728 72.4756 -1.63821 -3.69331 0.233358 
141 1 86.3194 76.9164 528.837 1.97823 -1.66849 -2.98117 
142 2 85.5586 133.583 530.41 -1.01422 -1.3782 1.57883 
143 3 83.1512 132.266 533.895 0.528313 -0.554909 -0.941148 
144 4 80.0177 129.417 534.563 -1.01192 1.3921 0.345489 
145 5 76.0252 128.835 535.721 1.45505 -0.619646 1.88968 
146 1 60.3546 88.5587 41.9324 -1.18848 -0.616761 -0.928408 
147 2 60.6847 85.5399 40.7396 0.680157 0.817897 1.65288 
148 3 61.9919 85.5353 37.3401 0.249059 -1.65362 1.51163 
149 4 63.0041 84.5213 34.258 -0.682514 -1.51353 -3.84219 
150 5 62.9516 83.1551 30.1005 -0.438746 2.96198 2.69768 
151 1 133.102 110.59 81.02 -1.001 -0.183744 3.25014 
152 2 131.615 109.685 84.1058 2.22168 1.86967 -0.746797 
153 3 132.648 109.895 87.8835 -2.60531 0.948605 0.240771 
154 4 133.781 111.879 90.5245 1.51029 -6.04565 3.7382 
155 5 132.537 114.268 94.0095 1.29762 -1.20335 -5.28799 
156 1 123.716 129.52 129.336 -1.1788 1.75789 -3.21738 
157 2 123.279 130.592 126.283 3.31297 0.209311 1.89079 
158 3 124.43 131.477 123.26 0.0799439 2.21338 -2.28223 
159 4 122.902 76.076 120.651 -0.613681 -2.17126 1.39689 
160 5 122.87 76.8009 116.734 -2.51229 0.963388 1.13534 
161 1 55.7 116.774 516.749 1.05977 -3.65183 -0.442037 
162 2 56.2047 117.544 519.471 1.2245 -0.141726 -0.214568 
163 3 55.1969 116.979 522.723 1.86392 -0.619277 1.43975 
164 4 51.8939 117.784 521.857 4.89704 -1.26584 0.569761 
165 5 49.8928 117.619 520.037 -3.25162 -0.974906 -0.797143 
166 1 108.966 81.0975 488.517 -0.632556 -0.100685 -0.915906 
167 2 106.597 81.2423 490.602 -0.0351631 -1.82427 -2.23905 
168 3 103.969 81.7661 493.289 -0.51114 0.027844 1.50267 
169 4 100.755 79.8727 494.733 0.091438 2.65913 -0.0162098 
170 5 96.841 78.9766 493.354 1.79544 0.504941 0.44746 
171 1 110.764 92.0378 15.9887 -0.521992 -1.36474 -2.74456 
172 2 108.906 94.1965 16.6217 -3.16516 -6.79563 3.32436 
173 3 106.564 95.1239 20.1194 0.226476 -4.81554 0.814657 
174 4 103.679 93.6431 21.7587 -1.30336 0.0354093 1.06168 
175 5 99.5078 93.2206 20.8236 0.719327 0.276267 1.4507 
176 1 107.466 124.617 514.842 0.29078 -2.03429 4.05254 
177 2 105.272 125.849 516.575 1.05222 0.0494009 -1.26528 
178 3 102.339 125.123 518.355 -0.412225 -0.0615221 1.63491 
179 4 100.387 128.033 520.04 -0.0430025 -3.12284 -1.54749 
180 5 99.0127 129.016 523.268 -1.69179 1.19823 -1.4324 
181 1 91.9878 108.279 85.851 -2.10018 0.232603 0.260773 
182 2 93.9515 107.451 85.2502 3.07414 0.0484638 -0.010616 
183 3 95.9545 107.953 82.5671 -5.96406 3.47664 0.114457 
184 4 96.8443 109.755 80.4645 0.405264 1.08043 -0.859973 
185 5 97.5145 110.113 77.4773 4.52482 -0.671707 -3.61469 
186 1 65.8653 125.346 489.657 0.0706847 -0.699283 -0.00207788 
187 2 65.6527 121.918 489.414 6.57379 -0.306321 -0.315922 
188 3 68.3526 119.268 487.659 -3.97184 2.93767 1.71387 
189 4 71.415 118.691 487.169 2.60661 3.69073 -0.209364 
190 5 74.6806 119.393 485.499 1.41737 1.3911 -1.98549 
191 1 105.079 105.588 39.464 2.07407 0.782659 -2.94007 
192 2 102.904 105.204 40.6627 2.29079 -2.94059 -1.00343 
193 3 104.96 103.077 43.2824 -1.12594 1.52655 1.5456 
194 4 102.615 101.036 46.1766 -0.607659 -1.33672 -1.28418 
195 5 101.102 97.6024 47.6274 4.68418 3.38555 2.44881 
196 1 62.8131 120.588 100.441 -2.96561 -2.42724 2.07904 
197 2 59.8145 122.234 101.959 4.8161 0.596596 0.187888 
198 3 58.6131 124.519 105.055 3.58658 -5.17612 0.78678 
199 4 56.8448 121.913 106.533 3.86974 0.270057 -2.95446 
200 5 54.6945 119.604 109.318 -4.46231 -0.760076 -0.767256 
201 1 48.0262 91.3991 144.877 -4.26723 -3.80021 -1.78993 
202 2 46.3593 93.0702 147.059 -3.87777 0.0682884 0.222241 
203 3 44.3379 93.1942 150.548 0.900916 0.308686 -1.22717 
204 4 45.9802 92.5224 154.011 1.4417 2.262 0.0444991 
205 5 47.1641 92.7351 157.634 -0.132331 -0.0266716 -0.642228 
206 1 87.6795 132.646 558.205 1.79062 5.50627 -0.760808 
207 2 90.0951 76.2668 557.064 -2.10529 -2.35263 3.81791 
208 3 90.1285 78.3649 554.672 3.28091 -0.00838877 -2.82801 
209 4 93.0165 76.3365 552.026 -0.200825 0.43669 0.776 
210 5 96.1191 132.897 551.16 -0.794812 -0.124324 -0.00605162 
211 1 37.6756 111.408 196.756 -1.87555 -4.31502 2.03163 
212 2 38.3553 113.186 195.88 4.58968 3.4541 -1.72443 
213 3 40.9317 117.115 195.726 -0.963071 -5.40639 3.53156 
214 4 44.1583 117.791 194.207 2.08994 0.0946263 0.655796 
215 5 45.9158 115.772 191.417 -0.992901 4.93073 1.36885 
216 1 92.4661 81.3004 531.642 -0.287682 -4.5067 -0.686131 
217 2 95.6746 81.8486 532.552 1.9408 -3.67788 -0.0398558 
218 3 97.7648 84.4035 530.49 -0.420198 0.354375 0.38984 
219 4 100.675 83.4096 528.671 3.13993 1.04372 1.75746 
220 5 102.242 84.9899 525.652 -0.110785 2.79576 0.267681 
221 1 48.5419 101.503 565.887 2.70766 -1.16757 -4.55423 
222 2 48.1127 101.544 562.583 -1.10355 -1.79785 2.24964 
223 3 48.9576 100.946 559.197 3.03974 2.44486 0.637595 
224 4 49.7329 104.141 556.696 0.13115 -0.11909 3.19445 
225 5 51.354 106.07 554.128 1.912 -3.59251 -0.661031 
226 1 37.4579 132.79 533.143 -0.435567 -1.79593 0.426548 
227 2 37.9561 132.43 535.935 0.252295 0.67298 0.998858 
228 3 38.506 133.138 539.876 -14.5683 -4.42277 -5.80328 
229 4 142.519 132.319 542.56 4.28428 2.87582 -0.485938 
230 5 37.5471 129.06 544.208 -3.62983 -2.76574 1.16145 
231 1 127.933 100.535 21.2872 0.313865 -3.18233 -1.02212 
232 2 127.996 101.931 23.6575 0.53639 -0.686713 2.51315 
233 3 127.841 103.595 26.9395 -0.505203 -0.401637 0.606315 
234 4 126.104 105.214 30.1693 -0.181688 0.00759148 -0.506209 
235 5 126.398 104.238 33.1258 -1.66385 -2.33675 2.69836 
236 1 51.4975 103.008 567.955 4.07957 0.0132959 0.0326623 
237 2 50.9171 100.944 13.5887 0.30357 -1.82719 -3.61907 
238 3 48.7374 100.006 15.9225 -5.28158 -6.14428 -0.709566 
239 4 44.492 99.0009 17.0507 1.03285 1.50311 2.71314 
240 5 41.7738 95.8169 18.0903 -0.304922 0.370355 -0.549426 
241 1 62.9569 131.002 43.5165 1.09268 -1.75821 1.48331 
242 2 62.5282 130.577 46.6154 -2.63599 0.34965 2.15081 
243 3 60.1632 132.095 49.8066 -0.27994 -1.30842 -2.95788 
244 4 56.7217 132.55 50.0699 -1.11069 0.363958 -1.14884 
245 5 55.196 132.829 53.022 -1.58516 -0.943738 1.92287 
246 1 82.9721 91.4845 23.7018 -0.180098 0.216455 1.38233 
247 2 84.7039 92.4524 21.6435 -0.0907298 0.728039 -0.848824 
248 3 85.389 91.8832 18.0593 -2.06819 3.59943 -1.67024 
249 4 86.4479 94.4253 15.3144 0.383465 2.69417 3.64581 
250 5 86.0007 97.1374 570.27 0.488421 1.78304 -1.66173 
251 1 94.7683 94.8741 531.32 0.649881 -1.93592 1.03668 
252 2 97.1707 95.0887 529.217 -6.18682 1.05706 0.638116 
253 3 96.4774 95.8507 525.521 3.11313 0.0336975 -0.673574 
254 4 96.0572 97.4294 521.578 1.34788 0.355697 2.30395 
255 5 94.8862 100.368 519.512 4.30624 2.85526 -1.74153 
256 1 115.37 124.455 45.4324 1.01244 -2.50284 -0.613684 
257 2 115.081 122.069 47.9255 1.86309 1.70529 -1.02655 
258 3 113.865 121.426 51.5339 -3.22487 0.273731 0.233404 
259 4 113.109 119.08 54.4387 -1.83243 -0.696615 -0.66253 
260 5 113.746 116.752 57.1753 5.39737 0.141988 -0.898256 
261 1 92.0235 103.51 506.738 -0.232271 2.97278 0.588771 
262 2 94.3998 105.389 505.715 -0.347266 -0.991783 0.612889 
263 3 96.9366 106.692 503.266 -2.17507 2.9867 -1.24945 
264 4 97.2183 106.458 499.186 -4.17908 1.40571 -0.520953 
265 5 98.827 105.495 496.431 0.995799 1.14429 -2.93954 
266 1 56.619 79.2392 37.4755 0.567406 -3.50246 1.98788 
267 2 59.1412 78.0971 36.2402 1.66482 1.8037 -3.8879 
268 3 60.5963 79.8382 32.8369 2.56731 -2.95179 1.76158 
269 4 62.1379 77.0746 31.3576 -3.05063 -2.2441 0.954002 
270 5 62.4008 133.603 27.9904 -0.516875 3.31402 -0.152439 
271 1 138.34 83.7517 31.397 -0.629883 1.40087 -2.25742 
272 2 139.413 84.1578 33.6789 1.34596 1.15302 -0.107046 
273 3 138.593 84.7063 37.0898 -2.94395 1.03922 -3.1741 
274 4 135.205 86.3161 38.5758 -2.87713 -0.98005 -2.30549 
275 5 132.897 88.1426 41.8194 2.56559 1.18854 -2.61173 
276 1 60.8029 88.7718 97.0921 -2.89573 2.29458 -1.89737 
277 2 60.8807 89.0915 94.4485 -5.03201 2.72489 -0.752969 
278 3 62.5254 90.9445 93.6262 -2.28688 0.824818 -2.81138 
279 4 63.5371 90.2968 90.0457 -0.0165921 -0.400071 2.11842 
280 5 62.7907 92.8639 87.5587 13.2112 4.00011 0.102383 
281 1 117.786 129.719 74.3236 -0.853875 -3.30638 3.82911 
282 2 115.632 128.681 76.1144 0.777705 0.387669 3.51481 
283 3 112.543 130.596 78.3993 0.455433 -2.08855 -0.964966 
284 4 109.414 128.81 79.3292 1.95213 0.486785 -4.2244 
285 5 106.02 130.331 78.0833 4.32017 -2.86191 -6.68652 
286 1 111.354 87.6827 14.7814 -0.611191 1.8552 0.796587 
287 2 110.422 88.9459 568.945 2.04991 -0.129821 0.838932 
288 3 112.294 87.6759 566.298 -1.09906 7.7203 -2.05705 
289 4 115.918 88.188 564.718 -3.49223 0.196601 -0.598028 
290 5 116.562 87.065 561.811 1.29798 0.672451 -1.63455 
291 1 100.072 120.482 565.638 0.137101 0.472122 -0.847928 
292 2 100.222 119.765 568.632 -0.0803858 -0.508807 -0.0246556 
293 3 99.4123 120.369 15.8823 6.49978 -5.76531 1.16137 
294 4 97.9789 120.867 18.8081 0.46992 -2.54453 2.52925 
295 5 97.1607 123.46 20.599 2.65168 -4.12676 -5.58294 
296 1 60.2163 127.101 549.904 -2.1951 -1.24887 -2.04879 
297 2 59.6633 127.95 552.553 1.64112 -0.373906 0.01842 
298 3 59.1539 129.753 555.7 -1.15019 -1.60737 1.91217 
299 4 59.9157 129.286 560.064 0.543914 -0.317129 -0.0844714 
300 5 63.0001 129.55 563 -0.200834 1.55903 0.0563967 
301 1 106.791 115.221 123.439 1.62615 -0.0620668 0.444291 
302 2 109.067 115.506 121.257 -1.38648 1.24316 -4.91547 
303 3 110.013 113.829 117.175 -3.36426 2.76288 0.351195 
304 4 111.504 113.909 114.122 0.696315 -1.96144 -1.87451 
305 5 111.498 114.826 110.421 -0.273792 -1.62266 -0.646355 
306 1 107.179 91.933 541.601 0.619985 0.652923 -2.11638 
307 2 106.675 91.3252 544.165 -5.11361 3.82923 0.402558 
308 3 104.541 91.3305 546.977 0.135113 -0.180795 0.517173 
309 4 102.773 88.5638 548.317 -2.1516 -0.207307 -0.119874 
310 5 101.858 85.1791 547.911 -1.3786 -1.00891 1.79367 
311 1 108.368 75.7747 43.9104 -1.90489 -4.85761 -2.00059 
312 2 105.922 76.6032 44.4449 0.377006 -3.14591 1.18591 
313 3 103.937 78.0973 46.5809 -1.18271 -0.502778 3.19593 
314 4 102.886 80.854 49.0455 1.99604 -2.91457 2.04982 
315 5 103.229 84.2792 50.5605 -2.0627 5.47875 -2.95233 
316 1 110.895 82.6115 546.116 0.727024 -0.288406 -1.49783 
317 2 113.364 83.7578 546.891 -0.0449561 -0.873756 2.98933 
318 3 111.503 82.9268 549.734 1.39504 -0.207618 -2.07112 
319 4 110.06 81.5419 551.772 -2.76792 0.583996 1.88625 
320 5 108.357 82.3366 554.18 -4.22678 1.39028 1.20246 
321 1 56.1965 126.94 150.229 0.207336 -3.39113 -1.68297 
322 2 55.7472 124.622 147.446 0.779668 0.938559 1.85071 
323 3 58.7405 124.58 144.636 -1.70288 0.182191 1.48913 
324 4 57.9313 127.444 142.238 4.47143 3.2795 -1.74253 
325 5 61.6179 128.529 139.512 -4.02237 -1.95133 -0.917493 
326 1 73.3742 120.613 21.182 -1.90393 -6.74857 2.18069 
327 2 75.5385 120.954 20.5502 2.87762 0.254039 -1.65363 
328 3 78.4774 120.482 18.9621 -0.818468 0.177206 -3.02592 
329 4 81.3332 120.433 16.6089 1.97479 3.60914 -2.09009 
330 5 82.7805 123.91 14.5478 1.10432 -4.71026 -1.36429 
331 1 75.7433 84.9623 555.093 1.89055 2.12535 -0.863547 
332 2 75.7327 84.4157 557.658 1.62233 -0.724552 -0.916806 
333 3 74.9735 82.6229 560.645 0.0630912 -0.365625 1.23515 
334 4 74.7553 79.1443 561.628 -1.01052 -0.212007 2.19913 
335 5 73.2941 76.1069 563.045 -0.00332849 -1.76794 -0.90692 
336 1 69.7918 85.1846 520.493 -1.05621 0.824965 2.13832 
337 2 69.6226 84.7386 517.976 0.338822 -3.05994 -0.19649 
338 3 73.3096 84.4756 516.653 -1.4767 0.0871709 -1.87413 
339 4 74.6692 87.3183 514.196 6.62741 -0.00780611 -0.817027 
340 5 77.3717 89.7633 512.527 1.22997 -1.09443 2.37193 
341 1 112.349 83.7686 42.3536 -4.43343 3.45771 -0.266942 
342 2 113.444 84.7268 39.9671 0.57673 -1.12902 -0.225948 
343 3 116.133 83.1106 37.4808 -1.53815 -1.11792 2.95825 
344 4 115.143 83.1244 34.2118 -7.57111 -0.823778 -2.35662 
345 5 115.234 83.2105 30.1833 4.0585 -0.14742 -0.624404 
346 1 134.37 127.863 499.858 0.273046 -7.82722 4.53046 
347 2 134.775 129.208 501.538 1.87647 1.69425 2.38323 
348 3 132.758 130.294 503.966 0.0492498 1.96744 -0.0535563 
349 4 131.192 132.032 506.806 -4.33843 3.24121 -2.20588 
350 5 128.213 133.389 509.181 -1.53398 -1.36989 -2.33978 
351 1 53.2188 115.981 36.249 0.574642 1.04279 -1.60206 
352 2 50.1782 115.717 36.3728 1.46473 -0.317113 0.948004 
353 3 48.2405 116.658 39.1335 -0.171979 -0.194861 0.289714 
354 4 45.6441 119.138 40.2577 -0.669302 -0.45445 0.843737 
355 5 43.9079 120.197 43.251 -1.94693 2.89699 -1.4744 
356 1 131.848 79.4605 25.7684 0.252752 -0.145347 -0.689553 
357 2 134.113 79.8548 23.687 -1.06444 -0.573611 0.996389 
358 3 136.702 78.7364 21.65 2.94298 -0.826572 -1.81799 
359 4 141.162 78.9629 21.2084 -2.50657 -0.821034 -0.688188 
360 5 39.3738 78.3821 21.7046 1.76065 -1.36822 0.0220041 
361 1 127.676 88.4814 554.846 -4.62827 -2.13988 -2.90768 
362 2 127.086 88.9047 556.916 1.61867 0.640089 1.32177 
363 3 125.293 88.8573 559.588 -2.64706 -0.254849 1.04194 
364 4 121.688 87.2948 560.415 2.4154 1.3093 -0.503171 
365 5 120.079 85.6664 562.356 -1.48633 -1.61809 -2.92007 
366 1 64.5041 126.914 44.72 0.911909 -2.76755 0.865233 
367 2 66.2182 127.069 42.3775 -1.46144 1.51451 -1.90805 
368 3 65.92 128.757 38.8413 0.31941 -1.46878 1.66824 
369 4 67.9555 130.817 36.8268 0.312324 -1.73032 -5.08356 
370 5 68.5481 129.367 32.9954 -0.0263685 -0.182478 0.949756 
371 1 68.5516 102.175 466.577 0.380501 -0.381972 0.0970226 
372 2 70.3873 100.408 468.61 -4.43488 0.263518 -2.98979 
373 3 69.5809 104.159 469.974 -0.285409 -0.956939 0.238314 
374 4 66.5338 105.051 472.101 -0.915725 2.10106 -4.87303 
375 5 64.9732 103.798 473.886 -3.31541 -1.46281 3.3542 
376 1 108.467 133.896 39.1977 -2.11442 1.34245 0.879709 
377 2 108.474 131.626 38.0845 0.731573 -3.68356 -0.746602 
378 3 110.019 128.636 35.1565 -1.35981 2.84947 1.65406 
379 4 111.75 128.656 31.8441 -1.04398 -0.144245 -0.541092 
380 5 114.343 129.515 30.6483 -0.243463 -6.20123 2.07443 
381 1 87.3482 133.213 564.718 1.48708 -1.70087 2.89328 
382 2 88.7648 75.8252 567.423 -1.54443 -1.43847 -1.9759 
383 3 87.6653 75.5095 13.9896 1.4673 0.415989 -0.110951 
384 4 86.9034 131.952 16.8895 2.74417 3.429 -0.922884 
385 5 86.3782 129.869 13.4629 -3.41937 -1.18331 0.620267 
386 1 119.464 107.259 518.463 -0.121069 3.14115 -1.88326 
387 2 122.07 107.51 516.052 -0.100016 2.39288 2.27559 
388 3 123.837 110.308 513.292 4.9617 -1.95818 -0.46912 
389 4 127.621 109.016 511.581 -1.69678 3.62428 0.982129 
390 5 129.469 107.503 509.345 -3.72135 -3.0564 3.31537 
391 1 65.6634 91.3539 18.6979 1.93129 1.29181 1.25882 
392 2 67.3131 89.3262 17.045 -0.54905 -0.424906 1.00717 
393 3 67.5493 86.9337 14.2812 1.486 1.39194 0.316834 
394 4 66.7438 86.8794 567.432 5.36748 -1.84399 -3.51249 
395 5 68.533 86.7879 563.699 -3.39225 3.23218 1.02501 
396 1 107.851 128.111 565.16 3.65822 1.10874 2.91096 
397 2 109.921 130.848 563.965 -0.830267 -4.72483 -0.306473 
398 3 112.944 132.871 561.395 -3.99095 -1.49274 0.889803 
399 4 112.263 132.907 557.89 -5.47252 4.06899 -0.429223 
400 5 112.91 129.588 556.896 -1.60675 -1.72872 0.767202 
401 1 49.0631 107.584 536.256 -1.00952 0.570236 0.186918 
402 2 47.9889 107.984 533.033 0.0758683 -0.358258 1.42915 
403 3 48.9942 105.94 529.875 3.79784 2.66722 0.935894 
404 4 49.5403 102.986 528.195 0.604121 0.560965 -4.4988 
405 5 50.7121 101.493 524.382 1.95619 -2.86203 1.59903 
406 1 112.714 98.3689 489.868 0.830418 -4.00524 0.633292 
407 2 111.08 96.9507 492.833 2.67009 0.00791207 -2.02379 
408 3 111.848 97.7048 496.349 -0.484601 -1.60835 1.23073 
409 4 110.259 96.4058 499.431 -1.21584 1.16585 -6.33401 
410 5 106.979 97.003 502.767 4.21356 5.49154 -1.78409 
411 1 136.919 75.4355 526.677 0.565878 0.41755 2.46367 
412 2 135.789 132.946 524.403 -1.91915 0.805289 -3.81975 
413 3 136.527 131.759 520.766 1.79737 -0.969353 -1.97192 
414 4 139.863 129.302 519.316 -1.09232 2.55514 2.22461 
415 5 141.974 128.061 517.215 2.55943 -2.00701 -1.45286 
416 1 54.3847 130.205 568.758 1.84609 -0.434444 -2.66371 
417 2 53.9101 131.302 14.1672 0.181189 0.90797 1.80282 
418 3 51.8064 131.24 17.5038 2.27052 0.797162 0.676629 
419 4 51.0283 132.317 20.7807 3.58483 -3.73581 -3.19186 
420 5 52.3589 76.0805 22.4175 -1.89027 -0.622708 2.23114 
421 1 96.5263 86.0547 90.6712 3.24101 -1.69413 2.61826 
422 2 97.0044 85.9648 88.2306 -0.417199 -0.433356 -3.9861 
423 3 98.7363 88.324 85.1219 -7.7013 -0.665486 2.30311 
424 4 98.5737 91.723 82.96 2.33661 1.07158 2.08943 
425 5 102.203 91.8122 80.4947 -2.59435 -0.045645 -0.079834 
426 1 112.418 109.57 546.077 1.03565 0.077675 -0.311193 
427 2 110.8 106.841 546.579 -0.320262 -0.0998779 2.03568 
428 3 108.076 105.176 548.866 -2.09675 -0.0358008 0.495424 
429 4 105.577 102.669 549.967 0.555267 -0.531451 0.718269 
430 5 102.566 101.222 549.584 1.17838 -1.98903 -2.49223 
431 1 84.6039 117.316 557.43 -1.36014 -0.65804 1.51468 
432 2 87.2561 118.363 556.743 0.0811695 -1.29851 -0.359295 
433 3 87.5093 117.294 553.395 2.10205 0.0248327 3.5259 
434 4 88.7021 117.549 550.021 -1.54395 4.11523 -4.84649 
435 5 88.3042 116.917 545.549 1.21229 -0.100764 1.50177 
436 1 98.7386 81.3161 91.6498 1.55774 0.150764 -1.21775 
437 2 100.56 81.0094 94.1935 -0.816746 -1.28477 0.499712 
438 3 98.2741 82.255 97.2114 0.14182 3.10696 -1.23968 
439 4 97.0636 85.763 99.3518 -0.600345 1.81574 -4.3391 
440 5 95.4557 87.1224 101.748 0.465992 0.0906876 4.2158 
441 1 42.7099 89.7712 57.043 -1.97736 2.7166 1.59756 
442 2 44.9391 89.1882 56.0763 0.926056 -0.836345 1.14415 
443 3 47.1926 90.312 53.9479 1.2055 -1.44946 -2.42316 
444 4 47.3093 91.8262 50.6941 1.05636 0.0656272 5.8887 
445 5 48.5572 94.0475 48.8702 -1.52908 2.7807 -1.73656 
446 1 76.8787 107.438 50.7419 -1.72069 1.23815 1.32886 
447 2 78.1423 105.547 49.2289 1.39242 0.925655 -0.107935 
448 3 80.6183 106.407 46.6247 1.05791 -1.9591 -3.21722 
449 4 80.2361 106.259 42.1059 1.53249 -7.23124 6.0936 
450 5 83.5267 105.716 39.6195 -1.18085 -1.27485 0.912499 
451 1 37.8883 91.8614 57.8816 3.73268 4.02199 -0.525288 
452 2 37.6413 90.86 56.0725 2.32941 -2.94033 -3.84275 
453 3 39.4893 90.7368 52.5879 1.45732 -2.20107 3.101 
454 4 43.0941 89.5775 50.8883 -3.09494 0.297022 -0.0166213 
455 5 44.4216 90.936 47.2841 0.528903 -5.77546 -3.7566 
456 1 55.3164 107.178 516.443 2.43505 1.02455 -1.04463 
457 2 52.9666 105.884 515.657 -0.412165 -0.362322 -3.48561 
458 3 53.1942 106.673 518.546 -4.36821 0.0862671 3.30604 
459 4 54.1902 104.388 521.88 1.01498 2.75926 -1.55779 
460 5 54.2615 102.643 524.029 -0.65156 -1.08802 1.0727 
461 1 137.153 91.1325 441.032 -2.56779 -1.81096 -0.32462 
462 2 136.235 90.5911 444.134 2.27559 1.27468 -1.61435 
463 3 133.991 89.724 446.586 -0.40812 -0.204703 -2.32236 
464 4 133.057 90.251 449.211 -2.3776 0.339402 1.73259 
465 5 130.463 89.6962 451.707 -4.65076 -2.2764 -2.92997 
466 1 43.7209 125.8 30.3338 1.13963 -0.450097 2.78334 
467 2 43.8386 125.404 27.9383 -0.175429 1.47617 -2.18444 
468 3 44.2546 126.569 24.4312 1.75107 1.76558 -0.700849 
469 4 44.4426 124.622 21.2983 -3.02137 4.52461 -0.12631 
470 5 47.435 125.42 20.8565 2.10012 0.859835 0.00806474 
471 1 77.7961 112.498 24.7986 -0.411212 1.1452 -0.715996 
472 2 77.6376 112.322 27.6254 0.385877 3.59364 -2.72785 
473 3 75.518 110.672 28.883 -2.32055 -3.37529 4.21895 
474 4 71.7017 108.162 29.1264 2.86213 0.983705 1.23088 
475 5 68.4537 107.534 27.7129 3.68877 -7.19058 1.26716 
476 1 55.9335 77.6916 122.138 0.651522 2.89128 -3.1556 
477 2 53.4102 78.5602 120.368 3.0541 0.32144 0.729567 
478 3 53.7018 79.9391 117.027 -1.81773 1.06625 -0.530518 
479 4 54.1858 80.5903 113.411 0.576624 1.17454 -1.06157 
480 5 56.9843 82.6124 112.151 -2.70631 -0.292105 -3.00012 
481 1 41.2443 107.916 115.279 1.53441 -2.10466 -0.910873 
482 2 44.5712 107.166 113.944 -2.17008 -0.935384 -2.24575 
483 3 46.4541 108.235 110.365 0.817623 0.304724 1.39347 
484 4 46.4249 111.524 108.962 -3.33715 1.87516 3.0577 
485 5 46.8738 113.537 106.812 2.25708 1.77451 -3.54936 
486 1 127.035 85.073 24.1116 1.56104 3.38022 2.51293 
487 2 124.638 84.9658 25.6814 -0.0981053 -0.0675791 -1.80754 
488 3 123.635 85.2984 28.5404 1.18101 -1.10845 1.97757 
489 4 124.206 83.6526 32.2562 -0.704274 0.556136 -0.988507 
490 5 125.213 82.2763 35.4765 -0.94974 -1.21782 -1.86564 
491 1 60.6679 91.8609 546.213 -0.32202 0.306747 -1.23593 
492 2 59.8009 95.1578 546.356 -3.91897 -6.85205 0.0337778 
493 3 58.0522 98.0209 548.291 -1.36247 -0.953047 -0.299449 
494 4 54.211 99.3337 548.696 1.35341 0.524021 -0.210598 
495 5 51.0289 99.3453 550.763 -0.232875 2.59748 3.83168 
496 1 42.8922 126.672 142.629 1.54354 -0.793105 -0.266905 
497 2 40.9334 128.448 143.968 -3.26656 -2.66792 2.90428 
498 3 39.6161 130.782 147.328 -0.548293 -0.0580648 -2.27836 
499 4 39.5395 132.468 150.495 1.73958 0.66199 -0.466344 
500 5 37.7158 76.3876 151.954 -1.93949 0.340593 1.87253 
501 1 40.1778 109.742 528.801 -1.01678 -1.36899 1.72725 
502 2 41.9893 110.102 527.229 1.73708 -0.657985 -1.19369 
503 3 44.8004 110.766 524.723 -2.5569 -3.32535 -4.64428 
504 4 47.7117 109.71 521.821 -3.28248 1.61241 2.06493 
505 5 47.6399 108.62 518.913 2.3589 2.30661 2.3082 
506 1 43.5014 132.654 34.0534 0.199131 7.07318 -2.22752 
507 2 42.7244 133.7 30.7842 2.83842 -3.31178 0.860101 
508 3 45.5721 131.859 27.515 -2.07248 0.0951542 0.413681 
509 4 48.1185 129.657 25.956 1.16913 1.7764 1.16141 
510 5 52.7627 128.344 25.5134 -1.61766 1.81353 -0.556042 
511 1 72.4224 131.229 553.109 3.50383 0.398452 -1.85527 
512 2 70.8007 129.395 553.509 -1.4797 -0.614962 1.37443 
513 3 69.3189 128.234 556.701 -1.63243 0.0760312 -2.03858 
514 4 70.2498 126.183 559.406 1.9579 -7.78601 -4.98771 
515 5 69.2186 124.368 561.964 -0.740223 2.70511 2.29825 
516 1 100.099 75.9294 564.502 -0.486877 -4.24235 2.03867 
517 2 101.26 76.9678 567.008 -0.442743 0.493601 0.155943 
518 3 99.4516 80.3332 568.405 1.57759 -4.41831 3.97118 
519 4 100.083 80.4449 15.9901 -0.704123 -1.10211 -2.03474 
520 5 99.6548 80.111 19.8248 0.125726 0.0818996 0.453414 
521 1 97.9313 98.5283 35.1222 -2.03611 2.8513 -2.79408 
522 2 98.2348 97.568 32.2219 1.41968 1.1749 -1.76434 
523 3 99.1073 96.8953 28.0943 -2.20578 -3.53092 -0.14202 