ITEM: TIMESTEP
102000
ITEM: NUMBER OF ATOMS
97821
ITEM: BOX BOUNDS pp pp pp
-22.0999 112.336
-21.8397 65.9581
-21.1856 62.042
ITEM: ATOMS id type x y z 
44637 1 -20.4409 -18.4513 -18.386 
44633 3 -20.4953 -19.4117 -18.9301 
44636 1 -19.5271 -19.9565 -18.6514 
43899 3 -15.7209 -15.7117 -15.9505 
41910 1 -19.5139 -20.7986 -14.3914 
44643 1 -19.116 -17.4527 -20.0192 
44638 3 -20.443 -19.0555 -20.405 
92462 3 -16.8045 -21.6726 -17.9579 
92461 1 -17.524 -21.5209 -15.8819 
43900 1 -17.5567 -16.7827 -15.4688 
43898 3 -17.0418 -15.9032 -15.1713 
44642 1 -18.2637 -18.9403 -20.1477 
44653 1 -16.7486 -16.7452 -20.1826 
44639 3 -19.0974 -18.3462 -20.5918 
92464 1 -16.7401 -20.6141 -17.9255 
44632 3 -21.7561 -20.1569 -18.3873 
44641 1 -20.4994 -19.9822 -21.0388 
44640 1 -21.3073 -18.5098 -20.7162 
44634 1 -21.5254 -20.3255 -17.2978 
44630 1 -21.8463 -21.384 -20.2495 
44627 3 -21.8105 -21.5674 -19.1039 
43906 1 -15.4621 -17.6674 -16.6333 
43904 3 -14.9003 -17.0185 -15.9652 
43907 1 -14.9321 -17.5687 -15.006 
41120 3 -12.3124 -19.8097 -14.9024 
41123 1 -11.8221 -18.9729 -15.3791 
41122 1 -13.2816 -19.4338 -14.5105 
43905 3 -13.4764 -16.8061 -16.5146 
43915 1 -10.8311 -16.9233 -16.0496 
43909 1 -12.964 -17.7555 -16.458 
41116 1 -10.7153 -19.9531 -16.9928 
43908 1 -13.5295 -16.5539 -17.5939 
41119 1 -13.4302 -20.4983 -16.626 
41115 3 -12.5286 -20.8106 -16.0444 
43912 1 -12.6769 -15.9279 -14.724 
43910 3 -12.6286 -15.721 -15.8505 
43911 3 -11.1753 -15.9685 -16.4098 
92471 1 -15.5786 -20.6429 -20.2176 
91373 1 -12.933 -19.5637 -20.6486 
41113 1 -12.0297 -20.9943 -18.8609 
91370 1 -13.321 -17.066 -20.4227 
43914 1 -11.2625 -16.0927 -17.5203 
41107 1 -10.6626 -21.8069 -20.9863 
41110 1 -9.3632 -21.5781 -18.8196 
41472 1 -9.59416 -16.2124 -20.797 
91371 1 -11.6549 -17.225 -20.9737 
41109 3 -11.4345 -21.687 -18.2325 
41118 1 -12.9262 -21.7899 -15.6761 
41114 3 -11.1631 -20.9141 -16.8645 
41117 1 -10.4327 -21.3778 -16.1766 
92468 3 -15.6119 -21.8023 -20.2072 
41134 1 -9.03046 -19.4315 -15.052 
41147 1 -7.91537 -20.4085 -16.8595 
41143 1 -6.92844 -17.9674 -17.3056 
41146 1 -7.02065 -20.2072 -18.2711 
41144 3 -6.90386 -20.2372 -17.2006 
41145 3 -5.96346 -21.3644 -16.8113 
41148 1 -5.74664 -21.2685 -15.7421 
41149 1 -4.99361 -21.2499 -17.3422 
41139 3 -6.49244 -18.8531 -16.6882 
42122 1 -3.34302 -19.1749 -17.6206 
41142 1 -5.45053 -18.8486 -16.9996 
41138 3 -6.3049 -18.4981 -15.2085 
41141 1 -5.53013 -17.7809 -15.3074 
41140 1 -5.81516 -19.3433 -14.6889 
42117 1 -4.64953 -19.9076 -19.5879 
41465 1 -5.08426 -16.626 -19.0125 
42120 1 -3.20133 -17.6795 -19.8246 
41467 1 -7.77997 -16.7276 -18.8579 
43030 1 -3.69361 -15.8424 -15.2946 
41137 1 -8.00559 -17.2459 -15.1164 
41133 3 -7.52829 -17.976 -14.4142 
42113 3 -3.72279 -19.7284 -20.3206 
42116 1 -3.28816 -20.7414 -20.4293 
41473 1 -8.70911 -17.7472 -20.689 
41463 3 -7.19104 -15.8685 -19.3179 
41462 3 -5.69117 -15.7243 -18.8964 
41464 1 -5.7692 -15.5859 -17.8466 
41468 3 -7.33315 -16.0757 -20.7842 
41469 3 -8.65832 -16.7349 -21.1436 
42119 3 -2.49331 -19.0392 -18.2342 
42118 3 -2.74733 -18.7077 -19.7055 
42127 1 -1.85791 -21.1449 -18.6524 
43028 1 -1.95 -17.7915 -15.4003 
42128 1 -2.48188 -20.8133 -16.0731 
42123 1 -2.07182 -18.1663 -17.8431 
43026 3 -1.77811 -16.9392 -14.7239 
42124 3 -1.55744 -20.2375 -18.0437 
42126 1 -0.516783 -20.017 -18.2555 
42125 3 -1.50569 -20.6293 -16.4775 
42129 1 -1.1877 -19.7303 -16.0179 
42135 1 0.476019 -20.6554 -14.4859 
7288 1 0.56739 -17.0062 -17.6162 
7282 1 2.83446 -19.3816 -15.6135 
7279 3 2.273 -18.9271 -16.4399 
7289 1 2.08038 -16.9512 -18.5202 
7285 3 1.63225 -16.7037 -17.5676 
7284 3 2.33159 -17.3289 -16.3458 
7283 1 1.23404 -19.1862 -16.192 
7287 1 1.83469 -16.9475 -15.4594 
7273 3 2.94222 -20.9566 -17.8758 
7278 3 2.63664 -19.4835 -17.8475 
7280 1 1.92141 -19.1456 -18.6065 
43029 1 -0.668403 -16.7631 -14.7245 
7277 1 2.08782 -21.532 -17.3758 
43027 3 -2.58701 -15.7213 -15.3796 
43031 1 -2.48311 -15.6699 -16.4924 
7286 1 3.36328 -16.9608 -16.2978 
42121 1 -1.78089 -18.6966 -20.3241 
42131 3 0.119732 -21.717 -14.8281 
7274 1 3.27913 -21.0463 -20.0115 
7281 1 3.60132 -18.866 -18.0898 
31847 1 7.12864 -20.6943 -17.694 
31849 3 7.42598 -19.5622 -20.2321 
31852 1 6.68455 -18.9011 -19.8406 
42165 1 5.83971 -19.181 -15.9426 
42161 3 5.98048 -18.5166 -15.1087 
42168 1 8.06374 -18.0668 -15.5476 
42166 3 7.11959 -17.5658 -15.5926 
31853 1 6.94174 -20.489 -20.4211 
42171 1 6.85903 -17.4752 -17.9195 
31848 3 8.57797 -19.9456 -19.1606 
42169 1 7.18828 -16.8573 -14.8493 
42162 1 7.50515 -19.8574 -14.4308 
31859 1 8.25093 -17.0002 -20.4437 
31855 3 8.77978 -17.7169 -21.0806 
31843 3 8.10796 -20.9339 -18.078 
42164 1 5.10125 -17.8362 -14.932 
31851 1 9.02569 -19.06 -18.7153 
31846 1 8.80989 -20.8366 -17.2197 
7276 1 3.75712 -21.1011 -17.1521 
31850 1 9.47121 -20.2402 -19.6983 
31858 1 9.64246 -17.9622 -20.5135 
42167 3 6.81589 -16.8946 -17.0067 
42174 1 8.76657 -16.2092 -17.551 
42170 1 5.7795 -16.526 -16.9918 
42172 3 7.70523 -15.7236 -17.2958 
7272 3 3.5828 -21.5835 -19.1142 
7275 1 4.674 -21.2875 -19.1167 
30995 3 11.0772 -21.6719 -14.3638 
78802 1 13.1433 -18.831 -20.8836 
31007 3 14.8202 -20.3366 -16.7636 
31010 1 15.0688 -19.2424 -16.8254 
31006 3 13.7013 -20.8283 -15.774 
78809 1 15.3087 -18.3657 -19.3978 
31005 1 11.8851 -20.1065 -16.8346 
32038 1 12.7125 -16.3859 -16.9408 
31011 1 14.4602 -20.3611 -17.8598 
31001 3 12.4543 -19.991 -15.8403 
31004 1 12.8272 -18.8874 -15.8687 
32030 1 14.619 -16.4112 -16.3731 
31012 3 16.1248 -21.1988 -16.6447 
78806 3 15.7922 -18.4799 -20.3702 
78805 1 15.18 -20.5324 -20.2341 
78801 3 15.1913 -19.6948 -21.0139 
32039 1 11.6004 -15.9905 -18.1675 
32028 3 15.4453 -15.8967 -16.8285 
32031 1 15.9315 -16.5841 -17.5732 
31003 1 10.5318 -19.5313 -14.7065 
31009 1 14.0579 -20.8998 -14.7521 
32024 1 16.1225 -17.4668 -14.5916 
32049 1 12.3969 -16.313 -14.4369 
32044 1 10.3497 -16.0428 -15.9655 
31000 3 11.4601 -20.143 -14.6576 
78799 1 12.7374 -21.1702 -20.5937 
78808 1 16.8347 -18.5081 -19.9962 
78810 1 16.4857 -16.4035 -20.7363 
31017 1 16.8869 -20.3288 -18.5133 
31937 1 20.5807 -16.5238 -20.7562 
31021 1 19.3318 -20.8093 -18.1169 
31013 3 17.2783 -20.6698 -17.54 
32025 1 17.2451 -17.7151 -15.9796 
31938 3 20.1399 -18.2471 -19.5589 
31940 1 21.2403 -18.3909 -19.2741 
31016 1 17.5922 -19.6465 -17.1448 
31018 3 18.5488 -21.4784 -17.6941 
31941 1 19.7599 -19.2794 -19.4908 
31933 3 20.1662 -17.5781 -20.9326 
31939 3 19.4292 -17.4533 -18.4267 
31942 1 19.6375 -17.9015 -17.4284 
31943 1 18.3579 -17.5199 -18.5693 
28576 3 21.8866 -21.4688 -16.3243 
28578 1 21.0703 -20.7112 -16.4616 
32022 3 16.9964 -17.0269 -15.1588 
32020 1 19.0454 -16.3575 -14.5819 
31949 1 21.6185 -16.1952 -17.3701 
31946 1 19.1021 -15.6775 -17.2778 
31944 3 19.6921 -15.9468 -18.22 
31945 3 21.2257 -15.5879 -18.1324 
31948 1 21.722 -15.8685 -19.091 
32023 3 16.459 -15.6591 -15.7427 
31015 1 16.4676 -21.2065 -15.5938 
28575 1 21.4092 -21.4157 -14.3443 
31930 1 22.6189 -19.0729 -21.0727 
28571 3 22.3548 -21.308 -14.8925 
28580 1 22.5013 -21.3229 -18.3776 
31936 1 19.1485 -17.4335 -21.1653 
43903 1 -15.9361 -15.3985 -17.0111 
43897 1 -18.1378 -14.5635 -16.4111 
43896 1 -17.1526 -13.7872 -15.2141 
44659 1 -16.7308 -14.3538 -19.891 
43888 1 -20.8347 -12.336 -15.4893 
43887 3 -20.4883 -14.4567 -14.8639 
43893 3 -17.8427 -14.6155 -15.3486 
44665 1 -17.2341 -12.5196 -18.5936 
44663 3 -18.9911 -11.262 -18.6526 
44667 1 -19.5257 -11.9658 -18.046 
44662 3 -17.8496 -12.0229 -19.3729 
43892 3 -19.0464 -14.3132 -14.3484 
43886 3 -21.0746 -13.3489 -15.8124 
43889 1 -20.601 -13.5406 -16.8195 
44657 3 -18.2969 -13.1599 -20.3762 
44660 1 -19.0254 -13.8163 -19.8837 
44668 3 -20.0672 -10.5485 -19.6295 
44666 1 -18.6092 -10.4265 -17.9901 
44656 3 -17.1143 -14.0178 -20.8264 
44670 1 -20.7537 -11.2249 -20.1595 
44664 1 -17.2528 -11.2264 -19.7886 
44671 1 -19.4793 -10.1636 -20.4636 
44669 3 -20.8047 -9.3378 -18.9675 
43890 1 -20.589 -15.4625 -15.4065 
44673 1 -20.9395 -9.48241 -17.8631 
47406 1 -16.0823 -9.6853 -18.2169 
43835 1 -19.9252 -9.82507 -15.271 
44654 1 -18.479 -15.5389 -21.0138 
43902 1 -15.2263 -14.8364 -15.5195 
43913 1 -13.0562 -14.7399 -16.0243 
93656 1 -12.7622 -13.1549 -20.1033 
93661 1 -10.8928 -11.1517 -18.8867 
43921 1 -10.8676 -14.1369 -14.2903 
43917 3 -9.98263 -14.2415 -14.8993 
43918 1 -10.4991 -14.0454 -16.9097 
43925 1 -9.79461 -12.1878 -15.7652 
43916 3 -10.112 -14.8428 -16.2885 
93657 1 -13.0424 -12.2354 -18.5971 
47409 1 -15.311 -10.9269 -16.3541 
47408 1 -13.8657 -10.3325 -17.2016 
93654 1 -14.3029 -10.6663 -19.5747 
93653 3 -12.6468 -12.1581 -19.6276 
93658 3 -11.163 -11.9558 -19.5927 
93660 1 -10.8696 -12.8897 -18.9889 
93652 3 -13.4931 -10.9655 -20.2612 
93655 1 -12.7894 -10.0556 -20.3343 
47405 3 -14.7934 -9.95011 -16.6322 
47410 3 -14.2064 -9.3127 -15.3518 
93659 3 -10.6245 -11.907 -20.9935 
47414 1 -12.5221 -10.8257 -15.4122 
47411 3 -13.2734 -10.372 -14.652 
47415 1 -13.7882 -11.28 -14.3336 
43919 1 -9.12075 -15.1246 -16.7075 
43922 3 -9.25879 -12.8689 -15.0194 
43927 1 -7.69199 -13.1806 -16.6006 
43923 3 -7.7414 -12.9073 -15.5134 
43926 1 -7.22292 -11.9127 -15.4552 
43928 3 -6.74581 -13.9763 -14.969 
43931 1 -7.0627 -14.9401 -15.3796 
43930 1 -5.67848 -13.8073 -15.2706 
41457 3 -4.87048 -14.4709 -19.3661 
41460 1 -3.97865 -14.4084 -18.5495 
41456 3 -5.53735 -13.1251 -19.4423 
41459 1 -6.1099 -12.8704 -18.5479 
41451 3 -4.46607 -12.0443 -19.6176 
41466 1 -7.84504 -15.1195 -18.9043 
41454 1 -4.0071 -11.9608 -18.5431 
41458 1 -6.31537 -13.1145 -20.2531 
41461 1 -4.39509 -14.7454 -20.2708 
43036 1 -3.74852 -12.8351 -15.2222 
41450 3 -4.90004 -10.5818 -20.083 
41453 1 -5.88342 -10.3029 -19.7184 
47438 1 -5.61698 -10.8502 -14.8054 
43042 1 -3.04696 -10.1785 -15.3344 
93666 1 -8.69087 -12.5483 -20.3525 
41448 1 -3.46179 -9.69082 -18.7447 
41455 1 -3.63928 -12.397 -20.2671 
47445 1 -7.72148 -10.4364 -16.9361 
93667 1 -8.69921 -10.8799 -20.721 
47444 1 -8.60964 -9.93994 -15.5581 
47441 3 -7.84091 -9.58792 -16.2655 
41445 3 -3.71654 -9.69881 -19.7794 
47442 1 -5.678 -9.36122 -16.4736 
47435 3 -5.97804 -9.82936 -14.417 
93664 3 -9.12221 -11.8667 -21.1364 
41449 1 -2.87062 -10.1588 -20.3496 
43037 1 -2.43802 -13.0934 -16.4382 
43043 1 -1.84011 -10.3839 -16.4177 
43033 3 -2.68256 -13.1318 -15.3345 
43038 3 -1.80749 -11.98 -14.7561 
7293 1 0.978381 -14.7138 -16.807 
7290 3 1.61854 -15.1256 -17.5578 
7291 3 1.08533 -14.5747 -18.94 
7295 1 1.66981 -14.8124 -19.8222 
7296 3 0.868314 -12.9971 -18.8173 
7299 1 -0.055913 -12.8275 -18.2078 
7294 1 0.0534043 -14.9194 -19.3146 
7297 3 0.519202 -12.3455 -20.1674 
7302 3 -0.0205307 -10.8996 -20.1229 
43040 1 -0.763134 -12.2596 -14.7493 
43039 3 -1.99501 -10.5655 -15.3411 
43032 3 -2.15744 -14.4444 -14.659 
43034 1 -1.079 -14.3291 -14.5451 
7305 1 -0.96979 -10.6789 -19.5423 
7304 1 0.795145 -10.2728 -19.7004 
7298 1 1.62877 -12.4389 -18.3357 
7292 1 2.64907 -14.7665 -17.3335 
42260 1 2.49186 -13.2609 -14.3409 
43044 3 -1.14223 -9.50489 -14.6073 
7301 1 1.39729 -12.3896 -20.761 
7300 1 -0.103456 -13.0411 -20.7831 
42265 1 3.88549 -15.4733 -14.5728 
42259 1 4.16117 -11.7185 -15.3625 
42256 3 4.50844 -12.7217 -15.0093 
42258 1 4.46833 -13.2832 -15.9688 
42176 1 6.31136 -14.2569 -18.1924 
42180 1 9.31593 -14.2777 -19.1992 
42178 3 8.4496 -13.7443 -18.7644 
42177 1 7.09939 -15.2925 -19.3261 
42173 3 7.31303 -14.7611 -18.4165 
42175 1 7.82291 -15.1747 -16.3337 
42252 1 7.14651 -11.7201 -16.1362 
42181 1 8.72169 -13.2668 -17.8032 
42182 1 7.06786 -12.0689 -19.4476 
42179 3 7.85844 -12.7446 -19.8748 
42247 1 9.3915 -9.85958 -14.9802 
42250 3 6.91724 -11.5694 -15.0821 
42253 1 6.58748 -10.5016 -15.0908 
42244 3 9.49853 -10.9303 -14.8405 
42251 3 5.92537 -12.5399 -14.4365 
42246 1 9.75195 -11.2035 -15.8181 
42186 1 9.53181 -11.5008 -20.1104 
42184 3 8.89373 -12.1188 -20.834 
42245 3 8.2969 -11.7143 -14.3527 
42255 1 6.34184 -13.5254 -14.3718 
42249 1 8.75766 -12.7346 -14.5212 
42183 1 7.18902 -13.3994 -20.4628 
32036 1 13.7475 -15.5088 -19.2199 
32035 3 12.388 -15.5399 -17.5636 
32045 1 10.0546 -14.4409 -15.2708 
32041 3 10.8442 -15.1741 -15.4869 
32042 1 10.932 -13.9682 -17.2019 
79375 1 12.664 -10.4684 -17.3275 
32037 1 13.2794 -13.9883 -18.7331 
32034 3 13.5476 -14.9469 -18.3153 
32040 3 11.6821 -14.5381 -16.6103 
32029 3 14.864 -14.6242 -17.4816 
32043 1 12.3435 -13.7449 -16.3682 
42222 1 16.0761 -10.8919 -17.0608 
79374 1 12.2268 -11.0234 -18.8776 
42231 1 14.6411 -10.9414 -15.0973 
42240 1 12.4468 -10.9969 -15.0955 
79371 2 12.6827 -10.1627 -18.3462 
79376 1 13.7567 -10.1473 -18.5813 
32033 1 14.5076 -13.9307 -16.7381 
32032 1 15.5885 -14.1661 -18.1757 
32027 1 16.0674 -15.1096 -14.8693 
79368 1 9.9701 -9.88399 -18.7915 
32046 3 11.6443 -15.5538 -14.2541 
79369 1 10.6004 -9.65202 -17.1654 
42189 1 10.3587 -13.923 -21.0115 
42238 3 11.9952 -10.4261 -14.258 
42241 1 11.9132 -9.40266 -14.5706 
31947 1 19.2632 -15.3361 -19.0025 
42216 1 16.3939 -10.9986 -19.5442 
42226 3 16.6632 -10.5842 -14.334 
42220 3 17.1399 -10.8919 -16.8969 
42221 3 17.4061 -11.3843 -15.5086 
42225 1 16.9011 -12.352 -15.3846 
42223 1 17.5192 -9.93721 -17.0306 
42213 1 17.1147 -13.3857 -20.2765 
42209 3 17.8331 -12.5342 -20.442 
42219 1 17.2598 -12.9122 -17.8225 
42214 3 17.4203 -11.3716 -19.4291 
42212 1 18.7807 -12.9794 -20.1036 
42217 1 18.063 -10.5356 -19.665 
42215 3 17.7176 -11.8917 -17.927 
42218 1 18.7797 -12.0751 -17.7159 
31953 1 21.0145 -13.4129 -18.4722 
31952 1 21.3458 -13.893 -16.8375 
31950 3 21.6523 -14.1071 -17.8484 
32026 1 17.2638 -14.9754 -16.0041 
42224 1 18.483 -11.4442 -15.3987 
42228 1 16.7892 -9.50325 -14.4107 
226 1 21.2299 -9.68389 -14.941 
246 1 22.0505 -10.1903 -21.1707 
47404 3 -15.7203 -8.95057 -17.455 
43844 3 -20.8545 -4.66142 -16.2731 
43832 3 -19.6886 -9.24971 -14.3607 
47407 1 -16.6663 -8.67288 -16.9161 
43841 1 -20.75 -7.33019 -16.0883 
43838 3 -20.2137 -6.87885 -15.2102 
43833 3 -19.0973 -7.88274 -14.7785 
43842 1 -18.9829 -5.56945 -16.358 
43839 3 -19.7554 -5.50127 -15.5784 
47393 3 -16.9891 -6.36231 -18.9068 
43836 1 -18.5234 -8.05394 -15.7181 
47396 1 -17.7216 -7.04285 -18.3391 
44672 1 -20.1293 -8.43018 -19.062 
47387 3 -18.9268 -5.23935 -19.889 
43843 1 -19.3875 -4.94966 -14.7555 
47390 1 -19.524 -6.17829 -19.7321 
47397 1 -16.8695 -5.57806 -18.0593 
47391 1 -18.9434 -4.70136 -18.9262 
47392 3 -17.5005 -5.74901 -20.1657 
47386 3 -19.6081 -4.3063 -20.9231 
43840 1 -20.9093 -6.83891 -14.4001 
47395 1 -17.5134 -6.50178 -20.963 
47394 1 -16.7433 -4.99065 -20.4245 
47381 3 -21.1851 -4.18616 -20.7953 
47388 1 -19.2574 -3.29031 -20.8906 
47385 1 -21.2617 -3.69066 -19.7585 
44677 1 -21.9563 -8.78744 -20.7017 
43846 1 -21.3623 -5.30863 -16.975 
43847 1 -20.3422 -3.83129 -16.8139 
47384 1 -21.7715 -5.15434 -20.7241 
43845 3 -21.8407 -3.89899 -15.3244 
47459 3 -11.8684 -6.26207 -21.0471 
47401 1 -15.6681 -7.79534 -19.896 
47398 3 -15.5672 -6.995 -19.1329 
47400 1 -14.773 -6.27021 -19.5138 
47461 1 -10.173 -5.22001 -20.1432 
47399 3 -15.0175 -7.6756 -17.8693 
47412 1 -14.9589 -8.8249 -14.7607 
47403 1 -13.991 -8.01372 -18.0701 
47402 1 -14.7915 -7.08325 -17.0119 
47413 1 -13.4639 -8.58801 -15.7018 
47453 3 -9.89309 -7.35064 -19.8156 
45773 1 -12.3813 -5.98212 -16.79 
45768 3 -13.5434 -4.7214 -15.3023 
45770 1 -13.9696 -5.66503 -15.0729 
45783 1 -10.3367 -5.26731 -15.3928 
45772 1 -13.7266 -5.22973 -17.4231 
45769 3 -12.92 -5.02116 -16.7104 
45780 3 -9.8224 -4.42577 -15.7717 
47456 1 -10.6322 -7.52836 -19.0014 
45771 1 -12.7614 -4.65016 -14.5042 
47449 1 -9.50975 -8.73768 -17.3384 
47458 3 -10.3595 -6.19642 -20.7104 
47457 1 -9.99498 -8.24667 -20.4783 
45777 1 -11.447 -4.3957 -18.1152 
47462 1 -12.3623 -6.27724 -20.1062 
45767 1 -15.4008 -4.07007 -15.7827 
45763 3 -14.5911 -3.57855 -15.2559 
45774 3 -11.9514 -3.91205 -17.2963 
45775 3 -10.8506 -3.41703 -16.2759 
45776 1 -12.5529 -3.14942 -17.7261 
45778 1 -11.3943 -3.05571 -15.3681 
47467 1 -12.5223 -4.17959 -21.1236 
45782 1 -9.27247 -4.82676 -16.6392 
45781 3 -8.96188 -3.86406 -14.5734 
47451 1 -6.73389 -8.03726 -18.3099 
47450 1 -7.78044 -9.18492 -19.0564 
47454 1 -7.68403 -6.81586 -20.0366 
47452 3 -8.42855 -7.08937 -19.2617 
47447 3 -7.82081 -8.19717 -18.4302 
47455 1 -8.50862 -6.19661 -18.6185 
47446 3 -8.45086 -8.49222 -17.0627 
47448 1 -8.52585 -7.59511 -16.419 
41447 1 -4.92102 -7.88462 -19.6729 
41444 3 -4.02695 -8.2145 -20.262 
95454 1 -6.80139 -5.43753 -17.3813 
95448 1 -7.87783 -4.16122 -19.4694 
95451 3 -5.98156 -4.66764 -17.4324 
47440 3 -6.44675 -9.11128 -15.712 
95456 3 -4.7793 -5.22547 -16.6078 
95459 1 -4.73131 -6.35099 -16.3972 
47443 1 -6.39052 -8.02963 -15.4929 
45788 1 -8.12473 -5.89067 -14.3295 
95450 3 -5.77286 -4.41481 -18.9746 
95453 1 -5.62741 -5.36927 -19.5262 
95445 3 -6.90129 -3.6736 -19.6157 
95457 3 -4.5479 -4.37366 -15.3181 
41443 1 -3.42778 -6.15778 -20.327 
41439 3 -2.95285 -7.15129 -20.099 
95455 1 -6.38156 -3.81775 -16.8789 
95460 1 -5.52384 -4.23293 -14.8196 
41440 1 -2.95784 -7.05193 -17.9042 
95452 1 -4.79762 -3.8315 -19.0308 
95458 1 -3.77698 -5.13582 -17.1074 
45785 1 -8.06882 -3.34796 -14.9213 
95444 3 -6.60773 -3.36759 -21.1088 
95461 1 -4.22251 -3.32947 -15.5548 
95462 3 -3.62973 -4.94969 -14.256 
43049 1 0.262699 -8.74495 -16.0651 
43048 1 -1.39958 -8.2192 -16.288 
43045 3 -0.609225 -8.39386 -15.5448 
41438 3 -2.20264 -7.07682 -18.7447 
41436 1 -2.31655 -5.00484 -18.6974 
41441 1 -1.64312 -7.95589 -18.5116 
41433 3 -1.468 -5.74176 -18.6755 
43053 1 0.355339 -6.50326 -15.6988 
41427 3 0.727304 -6.47722 -19.9058 
41430 1 0.179674 -7.41039 -20.1107 
41426 3 1.67763 -6.78682 -18.6322 
41424 1 2.44388 -8.81447 -19.347 
41429 1 0.980309 -7.20761 -17.961 
41428 1 2.12963 -5.86978 -18.181 
41437 1 -1.13049 -5.59038 -17.6285 
41432 3 -0.431 -5.44597 -19.8107 
43050 3 -0.257568 -7.01259 -14.9675 
43052 1 -1.16011 -6.43981 -14.8292 
41435 1 -0.127368 -4.432 -19.7379 
3825 1 2.74844 -5.23972 -15.562 
3821 3 2.80386 -4.45285 -14.7824 
41434 1 -0.836669 -5.49203 -20.8128 
41431 1 1.3675 -6.17557 -20.7203 
41421 3 2.83231 -7.8618 -18.8701 
41422 1 2.97547 -8.51118 -16.8455 
3874 3 3.12621 -3.13338 -20.6582 
43058 1 2.3792 -7.54161 -14.6723 
41425 1 3.4757 -7.36788 -19.6274 
3877 1 2.52016 -3.16645 -19.7842 
3826 3 3.01523 -3.06659 -15.4037 
3830 1 2.2075 -3.45491 -17.4319 
3835 1 0.114212 -3.59939 -16.1473 
95464 1 -2.64238 -4.87393 -14.6564 
41442 1 -2.23837 -7.31926 -20.9338 
3823 1 4.91964 -4.34839 -14.3156 
41420 3 3.69137 -8.18031 -17.6533 
41423 1 4.30406 -9.10459 -17.7257 
41419 1 3.97917 -6.08292 -17.1604 
41415 3 4.5828 -6.98394 -17.2096 
41418 1 5.25501 -6.85063 -18.0777 
41414 3 5.54519 -7.41467 -16.0046 
79361 1 7.21116 -7.54936 -19.4933 
79358 3 8.15771 -7.56504 -20.0229 
41417 1 6.07687 -8.34639 -16.3403 
41412 1 7.23777 -6.15815 -16.5762 
41409 3 6.58265 -6.32127 -15.6769 
41413 1 5.96595 -5.41835 -15.5173 
41416 1 4.92249 -7.7452 -15.1617 
79360 1 8.34897 -8.58214 -20.3075 
41408 3 7.55718 -6.72059 -14.4563 
3879 1 4.76243 -4.58035 -20.2772 
41411 1 8.47849 -7.29311 -14.9238 
3885 1 6.82328 -4.23783 -18.6537 
3875 3 4.62635 -3.45209 -20.373 
3881 3 6.75462 -3.14247 -18.9394 
3891 1 8.68112 -3.65438 -16.9353 
79356 1 8.00729 -5.55865 -20.7857 
79366 1 8.72385 -8.20079 -17.4447 
79362 1 9.13416 -6.12621 -18.7688 
79359 3 9.37362 -7.1246 -19.1683 
79364 3 9.66596 -7.89123 -17.8917 
41406 1 8.14621 -4.65688 -14.4111 
79354 1 5.77537 -6.93254 -21.1677 
79373 1 11.8833 -8.80332 -19.7568 
79370 3 11.9073 -8.93119 -18.6262 
79372 1 12.3699 -8.01197 -18.2375 
79365 3 10.4601 -9.1758 -18.1298 
79363 1 10.2969 -6.9895 -19.699 
79367 1 10.1861 -7.15598 -17.2605 
1906 1 12.92 -6.07974 -18.8279 
1913 1 14.1206 -6.58587 -17.0079 
1916 1 12.8135 -4.85416 -15.3641 
1914 3 13.8721 -5.05355 -15.4298 
1903 3 12.7663 -4.99578 -18.7007 
55034 1 16.0608 -6.67568 -19.4924 
1919 1 14.1476 -7.00976 -14.546 
1907 1 11.8665 -4.8277 -18.1654 
1915 3 14.2673 -5.94634 -14.3182 
1917 1 14.2595 -4.00214 -15.3006 
3897 1 10.6654 -3.51842 -15.5078 
1909 3 14.3672 -5.55724 -16.7918 
1912 1 15.4616 -5.61665 -16.6984 
1908 3 14.0989 -4.52699 -17.9522 
1911 1 14.9932 -4.41189 -18.548 
1902 3 12.7086 -4.35267 -20.1416 
1910 1 14.0169 -3.54776 -17.4503 
55041 1 14.6835 -8.56237 -21.1733 
1904 1 13.6347 -4.59196 -20.6723 
1905 1 11.9345 -4.92594 -20.7005 
55035 1 16.7861 -8.22825 -19.4434 
55031 3 16.8818 -7.25223 -19.9586 
55029 1 18.5314 -7.4584 -17.8087 
55030 3 18.1986 -6.56397 -19.7165 
55032 1 18.9346 -7.18444 -20.2496 
55028 1 17.7794 -5.80064 -17.7123 
55025 3 18.4939 -6.46553 -18.1791 
55033 1 18.3123 -5.62335 -20.3321 
55026 1 20.7146 -6.3807 -18.4138 
55024 2 19.8738 -5.81678 -17.9731 
55027 1 19.8849 -4.70527 -18.0875 
55023 1 20.2567 -5.88359 -16.9068 
223 1 19.6366 -7.71179 -15.1677 
224 3 21.6421 -8.64235 -14.7196 
229 1 21.9057 -8.2715 -16.9196 
1116 1 18.4626 -3.85431 -15.4197 
219 3 20.4715 -7.63856 -14.3431 
222 1 20.9428 -6.64539 -14.3642 
264 1 21.7746 -3.62848 -20.0824 
261 3 21.07 -3.37695 -20.8877 
265 1 20.0369 -3.59521 -20.4521 
225 3 22.4619 -8.29632 -15.9672 
251 1 22.4887 -7.68424 -21.0894 
45758 1 -17.3069 -2.26835 -15.1129 
47643 1 -17.3692 0.151169 -17.0945 
47638 3 -15.9697 1.2256 -18.2786 
47639 3 -16.6699 1.05059 -16.9902 
47640 1 -16.7367 1.01737 -19.0495 
47646 1 -18.4972 1.68136 -16.0136 
47644 3 -17.7127 2.14377 -16.7272 
47642 1 -16.1239 0.820363 -16.0855 
45752 1 -19.5623 -0.851901 -15.3979 
47649 1 -16.6113 3.06563 -15.1182 
47647 1 -18.2647 2.47242 -17.5833 
47599 1 -20.0286 2.92413 -19.6405 
45750 3 -19.506 -0.778875 -14.3405 
47594 1 -21.3038 3.0425 -17.3747 
45749 1 -20.1593 1.20248 -14.6214 
47655 1 -19.4614 3.20694 -14.7163 
43848 1 -21.3219 -2.98241 -15.0121 
47637 1 -15.2096 -0.679167 -18.0256 
47633 3 -14.7407 0.233866 -18.4412 
47641 1 -15.6162 2.25286 -18.3901 
47636 1 -13.9061 0.541248 -17.771 
47632 3 -14.2335 0.0682957 -19.922 
45766 1 -14.3025 -2.74084 -15.8756 
47630 1 -14.3544 2.19677 -20.2243 
47627 3 -13.6308 1.36819 -20.4233 
47631 1 -12.7939 1.72265 -19.8183 
7472 1 -11.6978 1.64793 -16.6386 
7470 3 -12.0803 2.2534 -15.7549 
45779 1 -10.3154 -2.53574 -16.6263 
4742 1 -9.50872 1.12236 -20.6196 
7473 1 -11.1808 2.65925 -15.2869 
7469 1 -13.4965 0.707389 -15.4354 
7465 3 -12.8257 1.29849 -14.7666 
47634 1 -13.5727 -0.759698 -20.0774 
4737 1 -9.33668 1.05144 -18.1411 
7467 1 -11.1153 -0.169769 -14.5307 
47635 1 -15.0324 -0.274626 -20.5979 
7475 1 -14.0101 2.90852 -16.6528 
45761 1 -15.3068 -1.10108 -14.4566 
95449 1 -7.00561 -2.6553 -19.1564 
4730 1 -9.1037 1.17517 -15.6717 
4738 1 -8.07843 -0.798148 -19.4962 
4732 1 -8.2206 -0.869051 -16.9865 
4740 3 -8.43035 1.01438 -20.7034 
4734 3 -8.20067 0.992071 -18.1654 
4735 3 -7.76772 0.328399 -19.4625 
4739 1 -6.68524 0.220764 -19.6333 
4729 3 -7.72274 0.155461 -16.9183 
3843 1 -3.55558 -0.373065 -16.5851 
4741 3 -7.85144 2.38703 -20.9712 
4736 1 -7.77704 2.04316 -18.1973 
4733 1 -6.58604 0.0703747 -17.075 
4728 3 -8.06853 0.871594 -15.6125 
3845 3 -3.60357 0.879816 -19.1177 
3849 1 -4.58972 0.472882 -18.7657 
3848 1 -3.59239 1.92025 -18.7508 
4726 1 -6.22274 1.87707 -15.0502 
4723 3 -7.20433 2.15841 -15.3981 
4727 1 -6.95836 2.75952 -16.3144 
7438 1 -3.53099 1.65309 -14.3571 
4731 1 -8.01314 0.334007 -14.6392 
4745 1 -7.48683 2.95481 -20.0899 
3853 1 -3.07897 -0.0860033 -21.0086 
4722 3 -7.85767 3.06441 -14.3286 
3850 3 -3.48818 0.849417 -20.6749 
95443 1 -8.27769 -2.07308 -21.1234 
3855 1 -3.0377 2.95211 -21.0807 
3846 1 -2.65401 -0.996442 -19.0203 
3844 3 -2.49728 -0.0448904 -18.5198 
3839 3 -2.53358 -0.246112 -16.9775 
3841 1 -2.46054 -2.38282 -17.0015 
3842 1 -2.10132 0.657117 -16.5898 
3840 1 -1.9142 -1.78833 -15.5253 
3838 3 -1.79989 -1.61146 -16.6145 
3847 1 -1.52328 0.287998 -18.8661 
3831 1 2.30264 -1.83551 -17.0322 
3829 1 2.87402 -2.2011 -14.6704 
3836 1 -0.413271 -2.05368 -18.1802 
3833 3 -0.323528 -1.75807 -17.1266 
3827 3 2.04178 -2.79056 -16.5928 
3837 1 0.126774 -0.748154 -17.116 
3832 3 0.566883 -2.65518 -16.2387 
7414 1 1.21667 1.51576 -18.9917 
3834 1 0.581286 -2.16825 -15.1956 
7419 1 -0.517076 2.39074 -17.9431 
7430 1 -1.3489 2.54322 -15.3003 
7418 1 0.612812 2.54764 -16.6396 
7407 1 2.90674 1.54024 -20.9701 
7415 1 1.07089 3.03847 -19.67 
7411 3 1.43061 2.58559 -18.7442 
7416 3 0.378337 2.92222 -17.6682 
7413 1 3.13918 2.21299 -17.6896 
7410 3 2.8811 2.91458 -18.5152 
3851 3 -2.47342 2.05329 -20.9898 
3854 1 -1.7472 2.28457 -20.1993 
3872 1 3.2802 -0.96709 -20.6932 
3871 1 0.740022 -1.32346 -20.9405 
3884 1 7.29124 -2.92741 -19.7845 
45921 1 3.80727 2.52093 -15.0788 
3828 1 4.06605 -3.00186 -15.864 
3888 1 6.47543 -2.40851 -16.9063 
3889 1 7.11781 -1.27566 -17.9918 
45915 1 4.44411 -0.160772 -14.6359 
7404 3 3.93068 1.783 -20.6105 
3882 1 4.58505 -2.93748 -18.3326 
3883 1 5.12467 -1.70123 -19.2541 
3880 3 5.29273 -2.7683 -19.1859 
3886 3 7.22654 -2.31571 -17.7063 
3887 3 8.60122 -2.65678 -17.3046 
3890 1 9.371 -2.70271 -18.1231 
3892 3 9.28263 -1.81604 -16.201 
3894 1 8.61105 -1.79407 -15.219 
4980 3 9.82783 2.05312 -14.5359 
7406 1 4.22948 0.890854 -20.0571 
7401 1 6.46869 1.53024 -20.8239 
4983 1 8.84839 1.50199 -14.5265 
7405 3 3.80298 3.07646 -19.7526 
3895 1 9.40413 -0.7474 -16.4728 
4976 1 8.06032 3.13656 -16.0422 
45916 1 5.95216 1.93409 -14.2626 
1305 1 10.5496 2.05082 -20.6029 
4979 1 10.1545 1.95789 -16.5737 
3893 3 10.6085 -2.48131 -15.813 
3896 1 11.1444 -2.51572 -16.7107 
1310 1 13.4986 1.31717 -20.2966 
1900 1 11.4008 -2.83901 -19.5316 
3902 1 12.0182 -0.0166066 -16.0469 
1901 1 13.081 -2.34107 -19.7371 
1897 3 12.2742 -2.89345 -20.1899 
1125 1 15.2903 -1.04806 -17.3123 
3903 1 13.2166 -1.33332 -15.9334 
3899 3 12.4666 -0.740728 -15.3162 
1311 1 12.0843 1.35444 -19.1822 
1314 1 14.1389 1.59502 -17.8034 
1307 3 12.9295 1.96265 -19.6189 
3908 1 13.7735 1.85156 -15.5506 
3909 1 15.0678 0.685734 -15.0683 
3898 3 11.3103 -1.58535 -14.7228 
3905 3 14.1528 1.15275 -14.7432 
1317 1 15.5369 2.13135 -19.9632 
1312 3 13.8902 2.43806 -18.5382 
1119 1 16.1479 -2.92012 -15.445 
4982 1 10.4395 1.07758 -14.5415 
3904 3 13.1327 0.172645 -14.2645 
1315 1 13.4475 3.22367 -17.9595 
1130 1 15.0228 -1.86896 -20.2865 
1313 3 15.2772 2.86876 -19.186 
1306 3 12.3812 3.13415 -20.3055 
1129 1 15.9618 0.263429 -19.2893 
1127 3 16.0741 -1.85024 -19.9975 
4975 3 10.133 2.79789 -15.8077 
1114 3 18.2505 -2.88735 -14.8121 
1117 1 19.2028 -2.41085 -15.0105 
1320 1 16.4971 2.3054 -17.3503 
1118 1 16.6861 -1.34559 -14.9799 
1121 3 16.3774 -0.909373 -17.5425 
1115 3 17.0465 -2.25809 -15.4822 
1124 1 16.5747 -0.00523496 -16.9971 
1122 1 17.1138 -2.90816 -17.4853 
1126 3 16.4983 -0.645254 -19.057 
1120 3 17.2768 -2.004 -16.9272 
1131 1 16.3442 -2.82938 -19.4671 
1128 1 17.4713 -0.164446 -19.2794 
1123 1 18.2604 -1.55111 -17.1565 
270 1 19.9962 -1.13768 -19.6032 
272 3 21.6336 -1.82526 -18.2981 
273 3 21.7238 -0.80913 -17.1184 
275 1 20.9137 -2.68662 -18.0034 
267 3 21.0972 -1.21346 -19.6286 
276 1 20.6958 -0.426232 -16.9704 
278 3 22.3427 -1.43881 -15.7905 
1328 1 20.0926 2.47297 -18.0176 
1329 1 18.8404 2.3765 -16.7859 
281 1 21.9139 -2.4062 -15.5942 
287 1 20.1946 0.118095 -14.7198 
3915 1 16.5364 2.82889 -14.6411 
1332 1 20.8474 2.78569 -15.3371 
271 1 21.4153 -0.215473 -19.594 
279 3 22.3306 -0.441482 -14.7154 
1318 3 16.4667 3.10561 -18.1309 
1323 1 18.2486 2.65137 -19.2894 
1325 3 19.5838 3.09581 -17.2086 
266 3 21.486 -1.94602 -20.9576 
277 1 22.377 0.0544237 -17.3449 
274 1 22.596 -2.2896 -18.4789 
282 1 22.7043 0.53987 -15.0384 
1134 1 18.0419 -1.53623 -21.0903 
269 1 22.6012 -1.96097 -21.1111 
47604 1 -19.2556 5.42806 -21.143 
17269 1 -22.0985 8.039 -15.5856 
47591 3 -21.8581 3.37178 -18.2987 
17268 1 -21.7032 6.77519 -16.933 
47608 3 -17.0996 7.21456 -20.5104 
47598 1 -21.3598 3.71495 -20.331 
47645 3 -17.155 3.36555 -16.0424 
47648 1 -16.3576 3.78002 -16.6924 
47650 3 -18.1257 4.47967 -15.7996 
17267 3 -21.6509 8.84945 -17.5512 
47603 3 -18.2862 6.68916 -19.5986 
47601 1 -20.9222 5.98249 -19.5414 
47652 1 -18.7853 4.60367 -16.6477 
47606 1 -17.8445 6.57555 -18.6048 
47600 1 -19.852 5.36625 -18.2287 
47597 3 -20.1805 5.1846 -19.195 
47596 3 -20.7883 3.72041 -19.3692 
47658 1 -20.9654 5.33199 -15.4114 
47653 1 -17.5562 5.4479 -15.7038 
17271 1 -20.5956 8.89758 -17.365 
47605 1 -18.181 4.59415 -20.0944 
47602 3 -18.9517 5.39676 -20.062 
16457 1 -18.6246 8.47609 -15.663 
16454 3 -18.0367 9.14165 -14.9811 
16455 3 -16.5922 8.58008 -14.8287 
16463 1 -16.3622 8.18026 -16.9441 
47609 3 -15.9362 6.13676 -20.4992 
17270 1 -21.6402 8.5866 -18.6593 
47659 1 -19.8111 6.28788 -14.6273 
47612 1 -16.3157 5.20714 -20.9101 
47610 1 -16.7634 8.22971 -20.259 
47607 1 -19.0452 7.54997 -19.5728 
16460 3 -15.7068 8.35574 -16.0976 
47613 1 -15.7582 5.86784 -19.4893 
47651 3 -19.083 4.22218 -14.6024 
47656 3 -20.2315 5.2995 -14.5549 
7471 3 -13.0955 3.3456 -16.2337 
47618 1 -13.4814 4.93839 -20.1419 
7479 1 -12.4493 3.45388 -18.251 
7476 3 -12.4965 4.16486 -17.3965 
7474 1 -13.4414 3.99827 -15.5202 
7478 1 -13.2444 4.90083 -17.6858 
7485 1 -10.8957 5.44467 -19.3359 
16464 1 -13.9254 7.19693 -16.9132 
7484 1 -11.5688 6.70486 -18.4331 
7477 3 -11.1687 4.94736 -17.2086 
7482 3 -10.8109 5.91185 -18.3408 
7483 3 -9.42072 6.59889 -18.1859 
7486 1 -9.4358 7.33871 -17.3762 
7481 1 -11.184 5.39388 -16.2417 
7480 1 -10.2654 4.28867 -17.1298 
16475 1 -10.9377 7.25611 -15.2261 
16461 3 -14.6733 7.22137 -16.0289 
16465 1 -15.2446 6.28998 -16.1167 
16468 1 -13.463 5.91726 -14.7687 
16466 3 -13.7607 7.02573 -14.7671 
16462 1 -15.2096 9.26691 -16.4132 
16472 3 -11.4239 8.20434 -15.3796 
16474 1 -11.5347 8.14874 -16.4799 
16473 3 -10.5377 9.3253 -15.0185 
16477 1 -9.74801 9.48012 -15.7892 
16467 3 -12.7697 8.17948 -14.5037 
16471 1 -13.2685 9.12801 -14.5998 
47616 1 -14.1292 7.37663 -20.8089 
47615 3 -13.5066 5.38577 -21.1474 
7487 1 -9.23371 7.24365 -19.0329 
7488 3 -8.10464 5.79117 -17.999 
7491 1 -7.90557 5.59066 -16.9777 
7490 1 -8.21484 4.81383 -18.3486 
7492 1 -6.91176 7.5911 -17.8414 
7493 1 -7.06016 6.97216 -19.4881 
7489 3 -6.9254 6.63953 -18.4781 
7496 1 -5.57209 4.80459 -18.7376 
7494 3 -5.62201 5.84505 -18.3147 
7497 1 -5.60281 5.50731 -17.2316 
7502 1 -3.96057 7.61317 -16.7614 