ITEM: TIMESTEP
108000
ITEM: NUMBER OF ATOMS
97821
ITEM: BOX BOUNDS pp pp pp
-22.0999 113.342
-21.8397 65.9581
-21.1856 62.042
ITEM: ATOMS id type x y z 
44637 1 -20.9944 -16.6844 -18.5878 
44633 3 -20.5932 -17.6633 -18.866 
44636 1 -19.7694 -17.8583 -18.1253 
41910 1 -19.236 -19.713 -14.3233 
44638 3 -19.9631 -17.4957 -20.2414 
44639 3 -18.776 -16.5123 -20.1086 
92464 1 -16.9343 -18.6914 -18.337 
44632 3 -21.7568 -18.6885 -18.6923 
43903 1 -16.7345 -16.2144 -15.8944 
44640 1 -20.723 -17.1256 -20.9112 
44627 3 -21.2786 -20.144 -19.0012 
92462 3 -16.9472 -19.7459 -18.0207 
44631 1 -20.2653 -20.1828 -18.5708 
92461 1 -17.3915 -19.293 -15.9347 
92465 1 -18.0193 -19.9948 -18.1685 
92469 3 -17.3522 -20.8278 -21.007 
92457 3 -16.6591 -19.9405 -16.4833 
44630 1 -21.1796 -20.0967 -20.1062 
92472 1 -18.0682 -20.1197 -20.5727 
92456 3 -16.6818 -21.4087 -16.0089 
92454 1 -18.8206 -21.5358 -16.1367 
92471 1 -15.9348 -19.3046 -20.8045 
92460 1 -15.7248 -19.4193 -16.2745 
92468 3 -15.9887 -20.3247 -20.4967 
92463 3 -15.9061 -20.4961 -18.9426 
92466 1 -15.9539 -21.5995 -18.8021 
44624 1 -22.0114 -21.193 -16.5467 
44642 1 -17.8995 -16.9307 -19.4529 
44641 1 -19.6326 -18.4566 -20.6819 
92459 1 -16.4285 -21.5357 -14.9141 
44649 1 -16.1338 -16.5785 -20.9238 
91373 1 -12.2395 -18.1776 -21.0753 
92467 1 -14.919 -20.3839 -18.5325 
41123 1 -12.582 -19.9637 -14.9126 
43905 3 -13.7596 -16.2661 -15.4506 
43915 1 -11.2549 -16.9933 -16.3679 
41116 1 -11.6697 -20.6373 -16.9357 
43908 1 -14.2204 -17.2215 -15.7297 
43910 3 -13.0484 -15.7578 -16.6977 
43911 3 -11.8974 -16.6209 -17.1862 
43914 1 -12.3096 -17.599 -17.5905 
43916 3 -10.9326 -15.7937 -18.0256 
43919 1 -10.2937 -16.4851 -18.6058 
41110 1 -10.0013 -21.3131 -18.6468 
92470 1 -15.1351 -20.8531 -21.0008 
43913 1 -13.7189 -15.5794 -17.5372 
41120 3 -12.8242 -20.9884 -14.5164 
41134 1 -9.50126 -19.7946 -14.8534 
43921 1 -9.4032 -15.6924 -16.383 
41114 3 -11.5465 -21.6742 -16.5899 
43909 1 -13.0236 -16.3847 -14.6895 
41117 1 -10.5735 -21.6903 -16.0236 
41147 1 -8.47846 -20.5292 -16.3925 
41143 1 -7.56515 -18.0121 -16.7117 
41146 1 -7.42372 -20.487 -17.7073 
41144 3 -7.41276 -20.372 -16.5874 
41149 1 -5.51801 -21.0734 -15.7952 
41139 3 -6.97397 -18.8613 -16.2526 
42122 1 -4.2971 -20.2472 -17.5982 
41142 1 -6.00318 -18.8294 -16.7614 
41465 1 -5.66998 -17.1768 -17.6734 
41467 1 -7.56033 -17.6103 -19.1969 
42119 3 -3.43181 -20.3876 -18.3438 
41145 3 -6.5502 -21.4644 -15.8379 
41148 1 -6.83969 -21.499 -14.8029 
42118 3 -4.04984 -20.397 -19.7879 
41463 3 -7.13657 -16.6198 -19.2821 
42121 1 -4.86814 -19.6132 -19.9319 
42120 1 -4.56331 -21.3463 -19.9194 
43028 1 -2.84753 -18.7941 -15.4915 
43030 1 -3.35159 -16.4206 -15.7744 
41462 3 -6.04708 -16.2508 -18.2215 
41464 1 -6.54422 -15.748 -17.3377 
41137 1 -8.70709 -17.3869 -14.761 
41138 3 -6.90841 -18.5441 -14.6928 
41141 1 -6.30504 -17.621 -14.4707 
42123 1 -2.79293 -19.5176 -18.2087 
42124 3 -2.78337 -21.7389 -17.8748 
41470 1 -5.80204 -17.0473 -21.048 
41468 3 -6.69642 -16.4927 -20.788 
41466 1 -8.01079 -15.9051 -19.2503 
42113 3 -3.06899 -20.152 -20.9395 
41105 1 -8.99361 -21.6754 -21.1234 
42128 1 -2.65992 -21.2737 -15.7506 
42125 3 -1.98934 -21.5417 -16.5915 
42129 1 -1.35522 -20.5961 -16.6589 
42135 1 0.0125646 -21.355 -14.7993 
7288 1 0.930826 -17.3269 -18.6731 
7282 1 2.8481 -19.3602 -15.9801 
7279 3 2.311 -19.1262 -16.8875 
7289 1 2.48925 -17.3957 -19.3443 
7285 3 1.98778 -17.0773 -18.4561 
7284 3 2.61527 -17.6558 -17.2152 
7283 1 1.25909 -19.2134 -16.589 
7287 1 2.31407 -17.0427 -16.3245 
7273 3 2.36575 -21.5806 -17.6921 
7278 3 2.57634 -20.0817 -17.9961 
7280 1 2.0064 -19.81 -18.9151 
43027 3 -2.29104 -16.7851 -15.7485 
43031 1 -2.00272 -17.0445 -16.7837 
43026 3 -2.27739 -18.0595 -14.883 
43029 1 -1.25716 -18.5518 -14.8254 
7281 1 3.65109 -19.9302 -18.3514 
43032 3 -1.39202 -15.5961 -15.2038 
43034 1 -0.35662 -15.9348 -15.3981 
42116 1 -2.53605 -19.1725 -20.7963 
78937 1 3.14182 -19.3496 -21.0732 
7277 1 1.22177 -21.6584 -17.5125 
42117 1 -2.28092 -20.9607 -20.887 
42150 1 3.68854 -21.1783 -14.6557 
7286 1 3.70851 -17.46 -17.2001 
31847 1 5.98176 -20.0512 -18.5364 
31849 3 6.89899 -17.8927 -19.9709 
31852 1 6.98265 -17.2944 -19.0021 
42165 1 5.88356 -17.7634 -16.5087 
42161 3 6.08885 -17.2045 -15.6226 
42168 1 7.97505 -16.849 -16.5673 
42166 3 7.22651 -16.2369 -16.1012 
31853 1 5.83869 -18.0958 -20.0588 
42171 1 6.14992 -15.711 -17.8432 
31848 3 7.64862 -19.2516 -19.7791 
42169 1 7.66398 -15.6932 -15.2711 
42162 1 7.44429 -18.4882 -14.48 
31859 1 8.60788 -15.6719 -20.5328 
42164 1 5.24405 -16.6115 -15.3525 
31850 1 7.6461 -19.8774 -20.7073 
42159 1 4.91201 -19.3283 -14.9781 
42160 3 6.47762 -17.9502 -14.3514 
31851 1 8.71842 -19.059 -19.5884 
31846 1 7.26895 -19.4138 -17.6106 
31843 3 7.09327 -20.0352 -18.5186 
31858 1 9.41247 -17.1999 -20.7317 
31842 3 7.60803 -21.4548 -18.441 
31845 1 8.71705 -21.436 -18.5428 
42151 1 5.14887 -21.8336 -15.2778 
31005 1 11.2645 -20.0685 -17.0459 
31003 1 10.8366 -18.2622 -15.543 
31007 3 14.7147 -19.8261 -16.2032 
31010 1 14.6603 -19.41 -15.1316 
31006 3 13.3708 -20.5754 -16.4676 
78809 1 14.587 -17.8011 -19.1843 
32038 1 13.0105 -16.7354 -15.5406 
31011 1 14.7537 -19.0074 -16.9367 
31001 3 12.1229 -19.5848 -16.6212 
31004 1 12.4069 -18.7094 -17.2011 
31012 3 15.976 -20.6846 -16.3298 
78805 1 14.6246 -20.2018 -19.6521 
32039 1 12.3185 -16.582 -17.2621 
32031 1 16.001 -16.9176 -15.8547 
78806 3 15.3896 -18.2624 -19.8328 
78808 1 16.2946 -18.5244 -19.2867 
78810 1 16.2802 -16.3794 -20.4179 
78801 3 14.6753 -19.475 -20.4675 
31014 1 15.8592 -21.2103 -17.2833 
32030 1 14.8543 -16.7186 -14.5511 
32028 3 15.6778 -16.2346 -15.0569 
32036 1 14.5908 -15.9655 -17.7239 
78800 3 13.2173 -19.1381 -21.0327 
31000 3 11.5822 -19.0596 -15.2821 
78802 1 12.5396 -18.5745 -20.32 
78807 3 15.6959 -17.2167 -20.9104 
78799 1 12.7154 -21.2216 -20.5335 
32035 3 12.8089 -16.0668 -16.4021 
32044 1 10.3324 -16.2847 -14.4872 
31002 1 12.3474 -18.5131 -14.6326 
30995 3 10.9443 -20.1445 -14.4227 
31015 1 15.8647 -21.4904 -15.5623 
30998 1 10.341 -20.7161 -15.1041 
31009 1 13.1773 -21.4335 -15.7771 
31008 1 13.5659 -21.069 -17.3806 
78796 1 10.4518 -19.8766 -20.9184 
31017 1 17.117 -18.8894 -17.1002 
31013 3 17.1555 -19.6673 -16.2617 
31016 1 17.0749 -19.2266 -15.2929 
31021 1 19.475 -19.5914 -16.474 
31938 3 19.389 -17.0717 -18.3499 
31940 1 20.3023 -17.4487 -17.8773 
31018 3 18.606 -20.3193 -16.4235 
31941 1 18.6956 -18.0399 -18.3268 
31939 3 18.8537 -15.9246 -17.5299 
31942 1 18.4964 -16.2466 -16.5361 
31949 1 20.2848 -15.571 -15.333 
31948 1 21.639 -15.8932 -16.4333 
31027 1 20.6405 -21.3032 -18.5737 
28579 1 22.3532 -19.9465 -17.3296 
31937 1 20.2 -15.7348 -19.9188 
31933 3 19.62 -16.6995 -19.8156 
31022 1 18.3791 -20.6427 -18.6103 
31019 3 18.6041 -21.1679 -17.6844 
31930 1 21.7042 -18.8185 -19.5005 
31936 1 18.6571 -16.3709 -20.2222 
31932 3 20.1404 -17.8491 -20.7297 
31927 3 21.6266 -18.3267 -20.4314 
31928 1 22.6835 -16.8269 -19.392 
31035 1 19.685 -20.9275 -20.7518 
32025 1 17.968 -17.7903 -14.3557 
28575 1 22.1244 -19.0769 -15.1081 
31926 3 22.7216 -17.2091 -20.398 
31934 1 19.5533 -18.766 -20.7008 
31020 1 18.8704 -20.9412 -15.574 
28572 1 22.9277 -21.6247 -15.1494 
44643 1 -19.0589 -15.5521 -19.6602 
43899 3 -16.1894 -15.2606 -15.9548 
43897 1 -19.0279 -15.4905 -15.9159 
43902 1 -15.8942 -15.2271 -16.9774 
43889 1 -22.0033 -12.3101 -16.9922 
44650 3 -16.4694 -14.4687 -20.3515 
44658 1 -16.366 -11.5563 -20.015 
43898 3 -17.2514 -14.1966 -15.589 
43896 1 -18.1906 -15.0254 -17.3256 
44659 1 -16.8388 -12.4457 -18.7454 
43888 1 -21.4427 -11.4561 -15.4899 
43887 3 -20.8908 -13.6387 -15.8076 
43893 3 -18.5185 -14.5271 -16.3911 
44665 1 -17.8814 -9.89563 -18.184 
44667 1 -20.5258 -10.0928 -18.2144 
44662 3 -18.5081 -9.94158 -19.091 
43886 3 -21.8203 -12.4407 -15.8915 
44654 1 -18.344 -13.6043 -20.8462 
44657 3 -18.501 -11.3282 -19.7042 
44660 1 -19.4044 -11.8245 -19.2927 
44656 3 -17.2258 -12.1284 -19.6822 
43890 1 -21.2589 -14.4806 -16.3855 
43830 1 -17.8965 -10.35 -14.4325 
43892 3 -19.5325 -13.286 -16.4867 
43895 1 -19.6832 -12.9363 -17.487 
43900 1 -17.5302 -14.176 -14.5287 
43901 1 -16.9016 -13.2251 -15.8141 
43894 1 -19.1448 -12.3464 -16.0329 
43891 1 -20.6639 -13.9857 -14.7732 
44653 1 -16.7114 -14.763 -19.3584 
44663 3 -19.9738 -9.50342 -18.9739 
44668 3 -20.781 -9.52313 -20.2699 
44661 1 -18.6649 -11.0414 -20.7548 
44651 3 -17.3337 -13.3096 -20.6917 
44670 1 -20.7333 -10.4858 -20.7725 
43918 1 -11.4487 -15.1355 -18.7841 
44652 1 -15.4415 -14.242 -20.3613 
93650 1 -11.2103 -10.3926 -20.8267 
43912 1 -12.6269 -14.8298 -16.4924 
43917 3 -9.88855 -15.0208 -17.1097 
47406 1 -15.5562 -9.92906 -18.0045 
93661 1 -9.22017 -11.2781 -19.6969 
43925 1 -11.2179 -13.29 -16.5917 
93657 1 -10.0181 -13.9485 -19.9261 
47409 1 -14.624 -11.1391 -16.0819 
47408 1 -13.3048 -10.1067 -16.7397 
93653 3 -10.1156 -13.0373 -20.6297 
47405 3 -14.3496 -10.0685 -16.2117 
43922 3 -10.4677 -13.9208 -16.1439 
43924 1 -10.9155 -14.3953 -15.2083 
93655 1 -11.2397 -12.0729 -19.2505 
93652 3 -11.4559 -12.4066 -20.2483 
47414 1 -11.7704 -10.106 -14.7454 
47410 3 -13.9857 -9.48527 -14.8037 
93654 1 -12.2466 -13.183 -20.0618 
93649 1 -13.8262 -10.5282 -20.0978 
43926 1 -9.80184 -12.2949 -14.8635 
43923 3 -9.39282 -12.8948 -15.6735 
47404 3 -15.3033 -9.34038 -17.129 
43904 3 -14.8985 -15.2563 -15.0012 
43907 1 -14.3654 -14.2384 -14.92 
93646 3 -13.4061 -10.7761 -21.1163 
93647 3 -11.896 -11.1892 -21.1488 
93658 3 -8.93272 -12.0382 -20.4178 
43920 1 -9.08951 -14.4709 -17.6362 
93660 1 -8.09096 -12.6124 -19.9704 
43927 1 -9.08708 -12.1307 -16.4266 
43928 3 -8.02023 -13.4258 -15.1718 
43931 1 -7.50555 -14.1424 -15.8888 
43930 1 -7.3054 -12.5351 -15.1496 
41457 3 -4.89365 -15.3371 -18.5951 
41460 1 -3.94158 -15.4847 -18.0133 
41456 3 -5.34921 -13.8729 -18.6437 
41459 1 -5.93586 -13.666 -17.7723 
41451 3 -4.1322 -12.9198 -18.6919 
41458 1 -6.02575 -13.7477 -19.5098 
41461 1 -4.45349 -15.4873 -19.5446 
41450 3 -4.6652 -11.4812 -18.8648 
41453 1 -5.13268 -11.2367 -17.9452 
47438 1 -5.8309 -10.0244 -16.1205 
41455 1 -3.5053 -13.2748 -19.5386 
47445 1 -8.22548 -9.60969 -16.9054 
41452 1 -5.56088 -11.448 -19.5503 
43042 1 -2.90655 -12.129 -15.6552 
41445 3 -3.55167 -10.4727 -19.3157 
41454 1 -3.53235 -13.0722 -17.772 
41449 1 -3.22128 -10.9006 -20.255 
93666 1 -6.68957 -10.446 -20.842 
41471 1 -6.63107 -15.434 -21.1343 
47436 1 -7.57035 -10.3554 -14.3064 
43036 1 -2.56131 -14.2006 -16.3227 
41448 1 -2.61791 -10.5503 -18.6713 
43037 1 -1.03878 -14.3729 -17.0691 
43043 1 -1.70989 -11.6771 -16.953 
43033 3 -1.51117 -14.311 -16.0552 
43038 3 -1.02066 -12.9686 -15.3252 
7293 1 1.34647 -15.1998 -17.5823 
7290 3 1.97388 -15.5277 -18.4112 
7291 3 1.23416 -14.9645 -19.6501 
7295 1 1.61742 -15.4493 -20.5387 
7296 3 1.43347 -13.4107 -19.8132 
7299 1 0.983507 -12.9357 -18.9383 
7294 1 0.217254 -15.2699 -19.6135 
7302 3 0.981571 -11.2791 -21.0093 
43039 3 -1.8575 -11.807 -15.8415 
7305 1 0.446609 -10.7395 -20.1667 
7304 1 2.07117 -11.0139 -20.7713 
7298 1 2.58501 -13.2605 -19.8577 
7292 1 2.9999 -15.0643 -18.4188 
42260 1 2.28385 -12.1077 -14.9234 
43049 1 0.611662 -10.6159 -15.6017 
43040 1 0.0562915 -12.8894 -15.5714 
43044 3 -1.5748 -10.4971 -15.1942 
43045 3 -0.237195 -9.88933 -15.6988 
43041 1 -1.13612 -13.0929 -14.2568 
42265 1 3.60259 -14.4137 -15.3503 
42257 3 3.25539 -12.3765 -14.5136 
43047 1 -2.38978 -9.73353 -15.3658 
43048 1 -0.384475 -9.68201 -16.7801 
7297 3 0.714773 -12.8454 -21.045 
42262 3 3.50806 -13.8951 -14.4084 
7300 1 -0.407468 -13.0326 -20.9043 
42167 3 6.66379 -15.1496 -17.0478 
42174 1 8.48637 -14.9582 -18.1559 
42170 1 5.93645 -14.5555 -16.3866 
42172 3 7.80876 -14.2896 -17.7154 
42259 1 4.01816 -10.4564 -15.5503 
42256 3 4.37189 -11.5666 -15.3652 
42258 1 4.66099 -12.0466 -16.3865 
42176 1 6.58501 -12.5148 -18.2941 
42180 1 9.18969 -13.2481 -19.7067 
42178 3 8.51285 -12.4864 -19.2237 
42177 1 6.83013 -13.6303 -19.6436 
42173 3 7.32703 -13.2313 -18.7226 
42175 1 8.58161 -13.8412 -17.0651 
42252 1 6.80111 -11.4223 -16.3608 
42182 1 8.04723 -10.4417 -19.4182 
42179 3 8.1834 -11.2702 -20.1144 
42183 1 7.20679 -11.4983 -20.5727 
42250 3 6.85176 -10.9364 -15.422 
42253 1 6.59406 -9.90582 -15.62 
42251 3 5.74034 -11.4792 -14.5958 
42247 1 9.49365 -9.52319 -15.1798 
42181 1 9.00343 -12.065 -18.3399 
42246 1 9.67648 -11.01 -15.9475 
42244 3 9.54903 -10.5826 -14.9463 
42255 1 5.99164 -12.4534 -14.2537 
42249 1 8.1975 -12.2005 -14.7116 
42245 3 8.16496 -11.1389 -14.5388 
32042 1 11.2168 -14.4652 -16.5583 
79375 1 12.861 -11.4352 -17.6432 
32037 1 13.8896 -14.3636 -17.3353 
32034 3 14.1207 -15.38 -16.9121 
32040 3 11.8305 -15.0358 -15.8114 
32029 3 15.1307 -15.0408 -15.819 
32043 1 12.5175 -14.2773 -15.3414 
79374 1 12.6175 -11.0898 -19.337 
42231 1 14.3352 -10.8005 -15.4109 
42240 1 12.3143 -10.7278 -15.1892 
79371 2 13.2284 -10.8325 -18.4824 
79376 1 14.2875 -11.0978 -18.6545 
32033 1 14.5729 -14.3047 -15.0631 
32032 1 15.8964 -14.3907 -16.3184 
79369 1 11.4195 -9.71572 -16.8738 
42222 1 15.7652 -11.8998 -17.1548 
79370 3 13.0869 -9.32493 -18.1486 
42227 3 15.0842 -10.6144 -14.5425 
42216 1 16.2146 -11.9707 -19.7064 
42223 1 16.2807 -10.2656 -17.5735 
42226 3 16.4763 -10.014 -14.8937 
32041 3 11.0203 -15.4304 -14.526 
32045 1 10.3627 -14.6184 -14.3152 
42186 1 10.1625 -10.6016 -20.769 
31943 1 17.9901 -15.4965 -18.0713 
31946 1 19.2936 -13.9868 -16.6538 
31944 3 19.8487 -14.7557 -17.2585 
31945 3 20.9053 -15.1214 -16.1414 
31947 1 20.1558 -14.1667 -18.1901 
42220 3 16.6767 -11.2243 -17.2223 
42221 3 17.2346 -10.9775 -15.8576 
42225 1 17.2511 -12 -15.3275 
42213 1 17.6325 -13.5641 -20.4388 
42209 3 17.9956 -12.5392 -20.7153 
42219 1 17.8971 -12.881 -17.8729 
42214 3 17.2902 -11.6869 -19.6647 
42212 1 19.0264 -12.5685 -20.463 
42217 1 17.3 -10.6199 -20.0209 
42215 3 17.7887 -11.8312 -18.1786 
42218 1 18.7049 -11.2838 -18.0234 
31953 1 20.7886 -13.1163 -15.4998 
31950 3 21.6233 -13.8017 -15.6481 
32026 1 17.5401 -15.1997 -14.5401 
42224 1 18.298 -10.8655 -15.8611 
31952 1 21.9847 -13.9469 -14.6806 
246 1 20.8491 -9.55724 -20.5671 
31955 1 22.152 -13.2427 -17.6617 
244 1 22.505 -11.4926 -20.4172 
236 3 22.7439 -9.48329 -18.2847 
239 1 22.3696 -10.4695 -17.8212 
31954 1 23.033 -12.4021 -16.2165 
242 3 22.9153 -10.5452 -20.6604 
233 1 22.8921 -9.35595 -15.3926 
31951 3 22.6633 -13.3184 -16.6534 
44664 1 -17.925 -9.18957 -19.6848 
47407 1 -16.3568 -9.169 -16.738 
47384 1 -21.4586 -5.09251 -21.0426 
47394 1 -16.935 -4.4516 -19.0629 
47385 1 -21.1624 -4.25302 -19.4213 
44666 1 -20.1893 -8.52043 -18.5155 
43835 1 -18.965 -8.6971 -15.9685 
43832 3 -19.3929 -8.67035 -14.9529 
43841 1 -20.2667 -6.46437 -16.4378 
43838 3 -20.5855 -6.34274 -15.3843 
43833 3 -19.6803 -7.20886 -14.4483 
43842 1 -19.5548 -4.46566 -14.9054 
43839 3 -20.5731 -4.89493 -14.9293 
47393 3 -16.8184 -6.3525 -18.001 
43836 1 -18.6686 -6.6519 -14.4573 
47396 1 -17.5966 -7.09234 -17.7271 
47387 3 -18.9277 -5.21238 -19.3139 
47390 1 -19.5017 -6.12168 -19.4697 
47397 1 -16.4948 -5.89299 -17.1597 
47391 1 -19.1451 -4.71583 -18.3097 
47392 3 -17.417 -5.43837 -19.1354 
43840 1 -21.6125 -6.76563 -15.4149 
43834 1 -20.3839 -9.14944 -14.962 
47386 3 -19.3296 -4.34249 -20.4861 
47381 3 -20.9122 -4.19402 -20.5225 
47388 1 -18.8482 -3.34133 -20.3903 
47395 1 -16.9563 -5.67102 -20.0958 
43847 1 -21.4955 -3.05071 -15.9586 
43844 3 -21.6227 -4.1366 -15.8117 
47401 1 -16.0266 -7.97751 -19.3756 
44672 1 -22.0972 -8.20673 -19.5499 
44671 1 -20.311 -8.78268 -20.9992 
43846 1 -21.5303 -4.46758 -16.8769 
47467 1 -13.635 -3.68502 -20.8402 
47457 1 -10.6602 -7.2479 -20.6147 
47398 3 -15.647 -7.22597 -18.5446 
47400 1 -14.8538 -6.69324 -19.1174 
47461 1 -11.6673 -4.54486 -19.9363 
47399 3 -14.8048 -7.96605 -17.4971 
47403 1 -13.7948 -7.97735 -17.846 
47402 1 -14.6943 -7.43733 -16.5188 
47413 1 -13.8089 -8.41373 -14.8674 
47453 3 -10.7244 -6.3925 -19.9078 
45773 1 -13.1826 -4.29208 -17.851 
45768 3 -14.1748 -3.7088 -15.9054 
45770 1 -14.751 -4.7172 -15.9308 
45783 1 -10.6456 -4.54841 -17.28 
45769 3 -13.5299 -3.36271 -17.3636 
47456 1 -11.4795 -6.60927 -19.1406 
45771 1 -13.3584 -3.90733 -15.1581 
47449 1 -10.1432 -7.98867 -17.0951 
45789 1 -9.87221 -3.78751 -14.3644 
45788 1 -9.62039 -5.31101 -14.9604 
45780 3 -10.2105 -3.5562 -17.0815 
45782 1 -9.95881 -3.2289 -18.1318 
47462 1 -13.3771 -6.07348 -21.1153 
47458 3 -11.3418 -5.26416 -20.7104 
47452 3 -9.20935 -6.17678 -19.4735 
47444 1 -8.75709 -8.80278 -15.4399 
47441 3 -8.29353 -8.62367 -16.4262 
47450 1 -8.70665 -8.29755 -19.3342 
47448 1 -9.13666 -6.65575 -16.5564 
45786 3 -9.03782 -4.34372 -14.8184 
45781 3 -8.83918 -3.7759 -16.2932 
47442 1 -6.28503 -7.81915 -16.9844 
47451 1 -7.53336 -7.18971 -18.848 
47454 1 -8.54628 -6.08988 -20.3069 
47447 3 -8.61504 -7.39 -18.7605 
47455 1 -9.09309 -5.27165 -18.8578 
47446 3 -9.11093 -7.61388 -17.2157 
41447 1 -4.56185 -8.75244 -18.4824 
41444 3 -4.08156 -9.00366 -19.4396 
95454 1 -4.54054 -5.3143 -17.6012 
95448 1 -5.24644 -4.84705 -19.7922 
95451 3 -4.92735 -4.36393 -17.2141 
47440 3 -6.82028 -8.22143 -16.1414 
95456 3 -3.92513 -3.9205 -16.025 
95459 1 -2.97445 -3.66151 -16.5209 
47443 1 -6.92511 -7.3348 -15.5181 
95450 3 -4.96077 -3.34393 -18.3603 
95445 3 -5.81127 -3.9338 -19.4762 
95457 3 -3.69802 -5.16517 -15.1564 
41443 1 -3.82698 -6.92836 -19.8207 
95455 1 -5.92737 -4.50954 -16.857 
95460 1 -2.93626 -5.85175 -15.6502 
95461 1 -4.56588 -5.81135 -14.936 
41446 1 -4.93744 -9.03293 -20.199 
95449 1 -6.67755 -4.48335 -19.0968 
41439 3 -3.14046 -7.78848 -19.7442 
45785 1 -8.11479 -4.34181 -16.8372 
95453 1 -3.90058 -3.05643 -18.6226 
47435 3 -5.97889 -9.27559 -15.3918 
47439 1 -4.9671 -8.81372 -15.1945 
45791 1 -7.04017 -5.10476 -14.4558 
95443 1 -7.90487 -3.72083 -20.995 
93667 1 -8.01559 -9.2965 -21.1356 
41440 1 -2.34557 -7.78553 -17.6484 
41438 3 -1.94181 -7.69006 -18.7186 
41436 1 -1.86982 -5.55975 -18.5972 
41441 1 -1.2849 -8.5853 -18.695 
41433 3 -1.1153 -6.37529 -18.7644 
43053 1 1.02577 -8.11705 -15.5775 
41427 3 0.8639 -7.09183 -20.1452 
41430 1 0.26003 -8.02904 -20.2263 
41426 3 1.86432 -7.05278 -18.9496 
41424 1 2.26255 -9.09785 -19.2874 
41429 1 1.38536 -7.09451 -17.9363 
41428 1 2.49834 -6.17378 -18.8238 
41437 1 -0.525074 -6.31934 -17.836 
41432 3 -0.252767 -6.01556 -20.0116 
43050 3 0.117016 -8.55933 -15.0557 
43052 1 -0.684875 -7.8347 -15.2935 
41435 1 0.223561 -5.04825 -19.8326 
3825 1 1.23187 -5.04138 -16.6039 
3821 3 1.24084 -4.36899 -15.7633 
41421 3 2.87351 -8.20682 -19.1073 
41442 1 -2.72753 -7.78858 -20.7892 
3824 1 0.22508 -4.32918 -15.2646 
41425 1 3.43998 -8.05751 -20.0614 
3822 1 2.11971 -6.0346 -14.5421 
3820 3 2.27593 -4.95065 -14.743 
41434 1 -0.845628 -6.00566 -20.9568 
41422 1 3.54398 -8.90895 -17.0543 
3823 1 3.22856 -4.8641 -15.1835 
3876 1 1.89095 -3.6829 -20.9628 
3828 1 2.22457 -3.26179 -17.1053 
41431 1 1.43197 -6.97759 -21.0324 
41423 1 4.68902 -9.254 -18.2761 
79353 3 9.77482 -5.80833 -20.4664 
41420 3 3.95769 -8.4762 -17.968 
41419 1 4.10787 -6.26406 -17.2598 
41415 3 4.69482 -7.19923 -17.5705 
41418 1 5.15668 -6.94469 -18.5214 
41414 3 5.75889 -7.42526 -16.4865 
79361 1 9.10617 -6.56837 -18.4842 
79358 3 9.91128 -6.75222 -19.1899 
41417 1 6.42593 -8.26431 -16.7448 
41412 1 7.02047 -5.65894 -16.929 
41409 3 6.4521 -6.04985 -16.0615 
41413 1 5.5681 -5.37389 -15.9743 
41416 1 5.24024 -7.70082 -15.6003 
79360 1 9.79958 -7.82715 -19.4736 
41408 3 7.44284 -6.32028 -14.9013 
3879 1 4.08563 -4.10773 -19.719 
41411 1 8.20938 -7.04243 -15.1727 
3885 1 6.23178 -3.77956 -18.9254 
3875 3 4.09321 -3.43137 -20.4892 
79354 1 7.60044 -5.4923 -20.7826 
79356 1 9.92322 -4.74385 -20.133 
41406 1 8.48035 -4.36232 -15.2529 
3891 1 8.3636 -3.51809 -17.7098 
3884 1 7.05361 -3.20088 -20.3467 
41403 3 8.0907 -4.89798 -14.4054 
79351 1 7.99169 -7.87332 -20.9252 
79368 1 10.8736 -9.23538 -18.5155 
79365 3 11.6073 -9.00741 -17.7958 
42241 1 11.9048 -9.29631 -14.5257 
42228 1 16.3652 -9.05153 -15.29 
79366 1 10.1958 -7.70795 -16.8352 
79362 1 11.1326 -5.5127 -17.8869 
79373 1 13.6525 -8.69649 -18.8504 
79359 3 11.2012 -6.53152 -18.3408 
79364 3 11.223 -7.59149 -17.2872 
79372 1 13.6848 -9.13651 -17.2233 
79363 1 12.08 -6.44531 -19.0175 
79367 1 11.8252 -7.33674 -16.4537 
1906 1 13.7097 -5.02795 -19.4128 
1913 1 15.4501 -5.11995 -17.5662 
1916 1 13.2458 -4.54052 -16.249 
1914 3 14.2283 -4.19709 -15.9712 
1903 3 13.5009 -3.9527 -19.1291 
1907 1 12.6728 -3.99426 -18.4745 
1917 1 14.0075 -3.11697 -15.6522 
1909 3 15.2008 -4.1464 -17.1419 
1912 1 16.0852 -3.60934 -16.689 
1908 3 14.7025 -3.36717 -18.323 
1911 1 15.5674 -3.18104 -19.0481 
1902 3 13.1788 -3.27563 -20.4678 
55035 1 15.736 -7.52387 -19.4981 
3897 1 10.2931 -3.23698 -16.1378 
1919 1 14.3491 -6.15819 -15.0339 
1915 3 14.7706 -5.16897 -14.8342 
1918 1 15.9134 -5.34805 -14.8427 
55031 3 16.4969 -6.86901 -20.0027 
55034 1 16.0981 -5.83225 -19.9982 
79357 1 10.6485 -6.09796 -21.0709 
1905 1 12.4024 -3.95022 -20.9185 
1904 1 13.9875 -3.35571 -21.1771 
55033 1 18.5102 -6.3927 -19.5076 
232 1 21.7245 -8.5179 -16.1674 
55029 1 16.7202 -7.9588 -17.5355 
55030 3 17.7858 -7.07788 -19.2337 
55032 1 18.2435 -8.05167 -19.5473 
55028 1 17.0574 -6.20184 -17.2561 
55025 3 17.4944 -7.13516 -17.6892 
55026 1 19.1479 -8.62166 -17.0874 
55024 2 18.7383 -7.60368 -16.932 
55027 1 19.6133 -6.97218 -16.9351 
55023 1 18.5381 -7.76871 -15.8417 
238 1 21.844 -8.99899 -18.5751 
264 1 22.4778 -3.75217 -18.4253 
230 3 22.7984 -8.43597 -16.0165 
258 1 21.8079 -5.79922 -19.6972 
261 3 22.0003 -3.10215 -19.1476 
265 1 20.9393 -3.16023 -18.8186 
263 1 22.952 -3.82482 -20.9633 
259 1 20.2882 -5.0819 -20.0566 
226 1 21.1628 -6.96122 -14.4047 
251 1 22.4534 -7.6466 -20.5362 
260 3 21.9218 -3.77486 -20.5474 
255 3 21.2324 -5.23545 -20.4928 
47382 1 -21.3632 -2.11998 -20.2249 
45758 1 -17.6134 -1.45227 -15.0294 
47643 1 -18.7805 0.0680658 -17.3242 
47638 3 -17.2513 1.0547 -18.6056 
47639 3 -18.1156 0.954415 -17.288 
47640 1 -17.7426 1.19094 -19.5197 
47646 1 -19.5536 2.06248 -16.0551 
47644 3 -18.8796 2.22025 -16.8837 
47642 1 -17.4078 0.681283 -16.4614 
45752 1 -20.2225 -0.969346 -14.8988 
47647 1 -19.6034 2.46013 -17.6245 
47637 1 -17.3158 -1.0682 -18.5698 
47641 1 -16.5433 1.85518 -18.5098 
47633 3 -16.5291 -0.29808 -18.7049 
47635 1 -16.1483 0.119515 -20.7553 
47636 1 -15.951 -0.354777 -17.7697 
47632 3 -15.7163 -0.544897 -19.993 
47634 1 -15.8109 -1.50315 -20.4635 
45767 1 -16.0809 -2.53179 -15.95 
47380 3 -21.4204 -2.84842 -20.9851 
45772 1 -14.2968 -2.91139 -17.9748 
45778 1 -11.502 -2.96292 -15.4393 
45763 3 -15.1377 -2.59001 -15.3708 
45777 1 -11.9918 -2.10486 -18.4106 
45774 3 -12.4282 -2.26178 -17.3249 
45775 3 -11.1948 -2.5706 -16.4037 
45776 1 -12.8873 -1.29561 -16.9694 
45766 1 -14.6877 -1.65289 -15.6013 
47630 1 -14.1093 0.514762 -18.8625 
47627 3 -14.2199 -0.197993 -19.6973 
47631 1 -13.7969 -1.08746 -19.2524 
7472 1 -12.5098 1.88304 -16.708 
7470 3 -12.8613 2.36114 -15.7693 
45779 1 -10.6348 -1.65817 -16.1086 
4742 1 -10.1917 0.422557 -19.5697 
7473 1 -12.0683 2.85315 -15.1753 
7469 1 -14.1643 0.628313 -15.5221 
7465 3 -13.4711 1.23545 -14.9042 
7467 1 -11.5419 0.0910787 -14.8995 
7475 1 -14.9296 2.79415 -16.4881 
4737 1 -10.1016 0.88359 -17.112 
4730 1 -9.71716 1.8868 -14.598 
47624 1 -12.8508 2.11325 -20.4761 
47628 1 -12.4119 -0.14277 -20.9253 
47626 3 -13.466 0.183065 -21.0272 
47623 1 -15.1315 2.53896 -20.4265 
4749 1 -10.4891 2.40263 -20.9473 
95458 1 -4.33874 -2.989 -15.5752 
95452 1 -5.33819 -2.35988 -18.0129 
45784 1 -8.38983 -2.77351 -16.1985 
4738 1 -9.0573 -1.0045 -18.0804 
4740 3 -9.09552 0.48378 -19.6953 
4734 3 -8.98587 1.03785 -17.2571 
95444 3 -5.98146 -2.94639 -20.671 
4732 1 -8.53773 -0.211727 -15.4497 
4735 3 -8.55017 0.0420348 -18.3396 
4739 1 -7.44966 -0.159803 -18.4592 
4729 3 -8.27348 0.831097 -15.8396 
3843 1 -4.23732 1.4465 -15.1602 
4741 3 -8.55863 1.84227 -20.2709 
4736 1 -8.88299 2.10753 -17.5545 
4733 1 -7.15647 0.889593 -16.0526 
4728 3 -8.61006 1.83323 -14.7061 
3845 3 -4.55371 2.2646 -17.7951 
3849 1 -5.51949 2.48515 -17.3713 
4745 1 -8.46923 2.61124 -19.5475 
95446 1 -6.14804 -1.96859 -20.2917 
3839 3 -3.33299 1.22358 -15.6551 
3846 1 -4.33929 0.162398 -17.341 
3844 3 -3.72522 1.09371 -17.1824 
3850 3 -4.54014 2.1062 -19.3007 
4743 1 -8.91234 -0.356757 -20.381 
3841 1 -3.41906 -0.900067 -15.1061 
4726 1 -6.92764 3.07349 -14.6825 
3853 1 -4.72693 1.06056 -19.636 
3852 1 -5.34612 2.62227 -19.8408 
4744 1 -7.52345 1.7038 -20.5856 
3851 3 -3.15966 2.61862 -19.8362 
95447 1 -4.97556 -2.84781 -21.1239 
3857 3 -1.05141 1.39944 -21.0432 
3842 1 -2.5875 2.06058 -15.5523 
3877 1 2.37464 -2.48101 -19.7196 
3874 3 2.60522 -2.88527 -20.6959 
3835 1 -1.20731 -2.5304 -15.2741 
3838 3 -2.62928 -0.0805539 -15.1175 
3871 1 0.838588 -0.814271 -20.4442 
3826 3 1.6332 -2.96867 -16.1905 
3830 1 -0.0697436 -2.81946 -17.4255 
3847 1 -2.75088 1.00903 -17.759 
3831 1 0.91105 -1.33414 -17.3762 
3836 1 -1.71393 -0.584812 -17.0576 
3833 3 -1.37833 -0.453187 -16.0193 
3827 3 0.463821 -2.18655 -16.6914 
3837 1 -0.655937 0.402271 -16.0164 
3832 3 -0.612114 -1.71988 -15.6286 
7414 1 0.0962835 2.52534 -17.7925 
3854 1 -2.33601 2.6174 -19.0847 
3834 1 -0.0727002 -1.52047 -14.7286 
3829 1 2.30818 -2.41878 -15.5398 
7407 1 1.85917 1.73831 -18.7666 
7404 3 2.8274 2.16765 -18.4826 
7406 1 3.0636 1.87793 -17.4806 
7403 1 3.57994 1.83287 -20.4231 
3861 1 -0.417698 2.2673 -20.8304 
45921 1 2.52528 2.25871 -14.7307 
45915 1 3.48289 -0.197537 -14.8613 
3860 1 -0.916677 0.649661 -20.2021 
3856 3 -2.59584 1.87339 -21.1205 
3890 1 9.20558 -2.85627 -19.0177 
7393 3 6.3649 1.71926 -20.0622 
3888 1 6.5381 -1.69838 -17.6782 
3882 1 4.5742 -1.96019 -18.9702 
3880 3 5.00306 -2.3472 -19.9185 
3881 3 6.38363 -2.85211 -19.5055 
7402 1 3.90429 0.51742 -19.3383 
3889 1 7.32016 -0.972969 -19.0244 
3883 1 5.20055 -1.46371 -20.5445 
3886 3 7.16296 -1.9559 -18.5345 
3887 3 8.5682 -2.52528 -18.0832 
7401 1 5.47152 1.62202 -18.0938 
4983 1 7.76292 1.59132 -15.1443 
7399 3 3.90773 1.62369 -19.3893 
7398 3 5.31802 2.14702 -19.0677 
3894 1 8.55921 -1.48207 -16.1975 
3892 3 9.2376 -1.59099 -17.0454 
4980 3 8.83935 1.75125 -14.9899 
3895 1 9.31439 -0.49484 -17.3708 
4975 3 9.34275 2.45766 -16.2947 
7396 1 7.33231 1.77618 -19.4819 
7397 1 6.28259 0.674895 -20.2836 
4979 1 8.93341 1.86531 -17.1676 
4982 1 9.19316 0.761822 -14.7947 
7400 1 5.26866 3.23541 -18.886 
1910 1 14.5132 -2.29339 -17.9931 
3896 1 11.269 -2.26661 -17.1841 
1900 1 11.6735 -1.87363 -19.7424 
3893 3 10.5261 -2.22554 -16.4748 
3902 1 11.77 0.224722 -16.7062 
1901 1 13.2527 -1.19578 -19.5735 
1897 3 12.6514 -1.8282 -20.3297 
1125 1 15.983 -0.759151 -17.0906 
3903 1 13.1012 -0.786382 -16.3389 
3899 3 12.2197 -0.369053 -15.9195 
1311 1 11.9748 1.69016 -19.9093 
1314 1 13.7268 1.99409 -18.2845 
1307 3 12.7086 2.43569 -20.1572 
3908 1 12.7463 2.36886 -15.7468 
3909 1 14.3702 1.64346 -15.8261 
3898 3 11.1449 -1.39565 -15.3788 
1317 1 15.4257 2.58057 -20.1637 
1312 3 13.6161 2.88517 -18.9688 
1130 1 16.3247 -1.35063 -19.8334 
1320 1 16.1458 2.7721 -17.7616 
3900 1 11.5145 -2.02542 -14.5265 
3905 3 13.5152 1.80037 -15.1816 
3904 3 12.7289 0.560495 -14.6921 
1119 1 16.5527 -2.09304 -14.8663 
1313 3 14.9878 3.239 -19.4404 
4978 1 10.4612 2.37626 -16.3515 
1310 1 13.3107 1.90529 -20.9045 
3901 1 10.4342 -0.786543 -14.844 
1132 3 18.0804 -1.07972 -20.9328 
1129 1 17.1122 0.949473 -18.9108 
1121 3 16.9118 -0.238254 -17.1012 
1124 1 16.8145 0.76746 -16.62 
1131 1 17.7274 -2.13114 -19.0895 
1122 1 17.9786 -2.06939 -16.7793 
1127 3 17.4032 -1.17194 -19.5764 
1118 1 17.02 -0.472978 -14.3181 
1115 3 17.4044 -1.41645 -14.7793 
1126 3 17.5705 -0.0327944 -18.5143 
1120 3 17.9312 -1.09712 -16.2467 
1128 1 18.6897 0.144512 -18.3612 
1123 1 18.9923 -0.772183 -16.3009 
270 1 20.9883 -0.859284 -17.8406 
272 3 22.5192 -1.47235 -16.5837 
273 3 22.021 -0.500133 -15.4003 
275 1 22.2281 -2.50229 -16.3674 
267 3 22.0256 -0.894057 -17.9224 
276 1 20.9324 -0.293406 -15.3994 
1328 1 19.2032 2.9432 -17.5683 
1329 1 17.82 2.94473 -16.648 
1332 1 20.011 3.01778 -15.2204 
266 3 22.6006 -1.68632 -19.114 
271 1 22.5302 0.107214 -17.9858 
268 1 22.3751 -1.099 -19.9698 
1134 1 19.1798 -1.06229 -20.7747 
277 1 22.4623 0.465428 -15.7554 
47649 1 -17.4133 3.51788 -15.8088 
47645 3 -18.1237 3.57059 -16.6899 
47655 1 -19.6254 3.65779 -14.4748 
47648 1 -17.4623 3.84212 -17.576 
47651 3 -19.4253 4.68012 -14.8192 
47599 1 -21.1659 3.49507 -19.3213 
47596 3 -21.7133 4.34659 -19.839 
47605 1 -19.028 4.56628 -20.1553 
47650 3 -19.1279 4.79411 -16.3779 
47603 3 -18.6183 6.55141 -20.8008 
47652 1 -20.0465 4.85485 -16.9027 
47606 1 -18.2159 6.71795 -19.8206 
47600 1 -20.5126 5.91117 -18.9549 
47597 3 -20.8153 5.57431 -19.9383 
47658 1 -21.5934 5.02449 -15.2151 
47653 1 -18.7284 5.78222 -16.5319 
47602 3 -19.5503 5.30456 -20.7314 
16463 1 -17.2922 8.06307 -16.5062 
16460 3 -16.6999 8.38073 -15.6474 
47656 3 -20.7196 5.4982 -14.5875 
47601 1 -21.256 6.42721 -20.4836 
17271 1 -21.1974 8.37214 -17.1964 
16457 1 -19.7078 8.51327 -15.1494 
16462 1 -16.5838 9.50334 -15.9318 
47613 1 -15.7835 5.66442 -20.4417 
16454 3 -18.8532 8.99591 -14.5129 
16455 3 -17.7002 8.09407 -14.4029 
47659 1 -20.5899 6.58566 -14.9113 
16458 1 -18.0154 7.05509 -14.3707 
47612 1 -16.9156 4.35559 -20.9431 
47598 1 -21.8598 4.0116 -20.8908 
47607 1 -19.172 7.45593 -21.1278 
7479 1 -13.6874 3.91788 -18.3309 
7471 3 -13.9894 3.3489 -16.2004 
7476 3 -13.6541 4.40528 -17.3626 
7474 1 -14.2381 3.95381 -15.3098 
7478 1 -14.4535 5.13966 -17.386 
7485 1 -12.1419 5.39817 -19.2941 
16464 1 -14.8822 7.73061 -16.5258 
7484 1 -12.9924 6.74532 -18.3215 
7477 3 -12.2767 5.07753 -17.1932 
7482 3 -12.1179 6.04754 -18.3593 
7481 1 -12.2462 5.73111 -16.2578 
7480 1 -11.4836 4.38255 -17.1344 
16475 1 -12.5876 8.46751 -15.8408 
16461 3 -15.4271 7.56437 -15.5711 
16465 1 -15.5615 6.50404 -15.5994 
7483 3 -10.7316 6.83172 -18.3068 
7486 1 -10.8642 7.30207 -17.2887 
7487 1 -10.6726 7.66569 -19.0066 
7488 3 -9.51965 5.9085 -18.5048 
7491 1 -9.42407 5.15187 -17.6669 
7490 1 -9.71893 5.26278 -19.4145 
16480 1 -10.3009 8.99754 -14.9733 
16472 3 -12.9977 9.47019 -15.7534 